# vtk DataFile Version 3.0
cell
ASCII
DATASET STRUCTURED_POINTS
DIMENSIONS 100 100 1
ORIGIN 0 0 0
SPACING 0.010000 0.010000 1
POINT_DATA 10000
SCALARS sample_scalars double
LOOKUP_TABLE default
0.557654 0.563953 0.572158 0.581127 0.590449 0.599953 0.609562 0.619233 0.628944 0.638678 0.648428 0.658185 0.667946 0.677705 0.68746 0.697209 0.706949 0.716679 0.726396 0.736099 0.745787 0.755458 0.765111 0.774745 0.784358 0.793951 0.80352 0.813066 0.822587 0.832083 0.841551 0.850992 0.860404 0.869787 0.879138 0.888458 0.897746 0.907 0.916219 0.925403 0.93455 0.94366 0.952732 0.961765 0.970757 0.979709 0.988619 0.997487 1.00631 1.01509 1.02382 1.03251 1.04115 1.04975 1.05829 1.06679 1.07523 1.08362 1.09196 1.10025 1.10849 1.11667 1.12479 1.13286 1.14088 1.14883 1.15673 1.16457 1.17234 1.18006 1.18772 1.19531 1.20285 1.21031 1.21772 1.22506 1.23234 1.23955 1.24669 1.25377 1.26078 1.26772 1.2746 1.2814 1.28814 1.29481 1.30142 1.30795 1.31442 1.32082 1.32717 1.33345 1.33968 1.34587 1.35203 1.35819 1.36442 1.37083 1.37774 1.38601 
0.569446 0.575743 0.583393 0.591843 0.60076 0.609956 0.619327 0.628812 0.638373 0.647985 0.657633 0.667305 0.676991 0.686687 0.696387 0.706086 0.715783 0.725473 0.735155 0.744827 0.754486 0.76413 0.77376 0.783371 0.792965 0.802538 0.81209 0.82162 0.831126 0.840608 0.850064 0.859493 0.868894 0.878266 0.887608 0.896919 0.906198 0.915444 0.924656 0.933834 0.942975 0.95208 0.961147 0.970175 0.979164 0.988112 0.997019 1.00588 1.01471 1.02348 1.03222 1.0409 1.04954 1.05814 1.06668 1.07518 1.08362 1.09202 1.10036 1.10865 1.11689 1.12507 1.1332 1.14128 1.14929 1.15725 1.16516 1.173 1.18079 1.18851 1.19618 1.20378 1.21132 1.21881 1.22622 1.23358 1.24087 1.24809 1.25525 1.26235 1.26938 1.27635 1.28325 1.29009 1.29686 1.30356 1.31021 1.31679 1.32331 1.32978 1.3362 1.34258 1.34892 1.35525 1.36159 1.36798 1.37451 1.38132 1.38864 1.39691 
0.579277 0.586124 0.593771 0.602035 0.610732 0.619723 0.628918 0.638253 0.647688 0.657193 0.66675 0.676343 0.685961 0.695597 0.705244 0.714897 0.724552 0.734205 0.743853 0.753493 0.763124 0.772744 0.782349 0.791939 0.801513 0.811068 0.820603 0.830117 0.839608 0.849076 0.858519 0.867937 0.877327 0.886688 0.896021 0.905323 0.914594 0.923833 0.933038 0.942209 0.951344 0.960443 0.969505 0.978529 0.987514 0.996459 1.00536 1.01422 1.02304 1.03182 1.04055 1.04924 1.05788 1.06647 1.07501 1.08351 1.09196 1.10035 1.1087 1.11699 1.12523 1.13342 1.14155 1.14963 1.15765 1.16562 1.17353 1.18138 1.18917 1.19691 1.20458 1.21219 1.21975 1.22724 1.23467 1.24204 1.24934 1.25658 1.26376 1.27088 1.27793 1.28492 1.29184 1.2987 1.30551 1.31225 1.31893 1.32556 1.33213 1.33866 1.34515 1.3516 1.35804 1.36448 1.37095 1.3775 1.3842 1.39114 1.39847 1.40632 
0.588285 0.595646 0.603475 0.611736 0.620348 0.629227 0.638305 0.647532 0.656868 0.666285 0.675764 0.685288 0.694846 0.704428 0.714026 0.723636 0.733251 0.742869 0.752484 0.762096 0.7717 0.781294 0.790877 0.800446 0.81 0.819537 0.829056 0.838554 0.848031 0.857486 0.866917 0.876322 0.885701 0.895053 0.904376 0.91367 0.922933 0.932164 0.941362 0.950526 0.959656 0.96875 0.977807 0.986827 0.995807 1.00475 1.01365 1.02251 1.03133 1.0401 1.04883 1.05752 1.06615 1.07475 1.08329 1.09179 1.10024 1.10864 1.11698 1.12528 1.13352 1.14171 1.14985 1.15793 1.16596 1.17393 1.18184 1.1897 1.1975 1.20524 1.21293 1.22055 1.22811 1.23561 1.24305 1.25043 1.25775 1.26501 1.2722 1.27934 1.28641 1.29342 1.30037 1.30726 1.31409 1.32086 1.32758 1.33425 1.34087 1.34745 1.35399 1.36052 1.36703 1.37355 1.38011 1.38674 1.3935 1.40045 1.40764 1.4151 
0.596882 0.604642 0.612686 0.621027 0.629636 0.63847 0.647483 0.656637 0.665901 0.675251 0.684667 0.694133 0.703638 0.713172 0.722727 0.732297 0.741877 0.751461 0.761047 0.77063 0.780209 0.78978 0.799341 0.80889 0.818425 0.827945 0.837447 0.846931 0.856394 0.865835 0.875254 0.884648 0.894017 0.903358 0.912672 0.921957 0.931212 0.940436 0.949627 0.958786 0.96791 0.976998 0.986051 0.995066 1.00404 1.01298 1.02188 1.03074 1.03955 1.04832 1.05705 1.06574 1.07437 1.08297 1.09151 1.10001 1.10846 1.11686 1.12521 1.13351 1.14175 1.14995 1.15809 1.16617 1.1742 1.18218 1.1901 1.19797 1.20577 1.21352 1.22121 1.22884 1.23641 1.24393 1.25138 1.25877 1.2661 1.27338 1.28059 1.28774 1.29483 1.30186 1.30883 1.31574 1.3226 1.3294 1.33615 1.34286 1.34952 1.35614 1.36273 1.3693 1.37587 1.38244 1.38905 1.39572 1.40248 1.40937 1.41639 1.42356 
0.605233 0.613297 0.62154 0.629989 0.638639 0.64747 0.656455 0.665568 0.674784 0.684085 0.693452 0.702872 0.712333 0.721826 0.731343 0.740877 0.750424 0.759979 0.769536 0.779094 0.788649 0.798198 0.807738 0.817268 0.826785 0.836288 0.845775 0.855244 0.864694 0.874123 0.88353 0.892913 0.902271 0.911603 0.920908 0.930185 0.939432 0.948649 0.957833 0.966985 0.976104 0.985187 0.994235 1.00325 1.01222 1.02115 1.03005 1.0389 1.04772 1.05649 1.06521 1.0739 1.08253 1.09113 1.09967 1.10817 1.11662 1.12502 1.13337 1.14167 1.14992 1.15812 1.16626 1.17435 1.18239 1.19037 1.1983 1.20617 1.21398 1.22174 1.22944 1.23708 1.24466 1.25218 1.25964 1.26705 1.27439 1.28168 1.2889 1.29607 1.30318 1.31022 1.31722 1.32415 1.33103 1.33786 1.34464 1.35138 1.35807 1.36473 1.37135 1.37796 1.38456 1.39117 1.3978 1.40447 1.4112 1.418 1.42488 1.43181 
0.613418 0.621714 0.630129 0.638689 0.647399 0.656253 0.665235 0.67433 0.683518 0.692785 0.702116 0.7115 0.720925 0.730384 0.739869 0.749373 0.758891 0.768418 0.777951 0.787485 0.797018 0.806546 0.816067 0.825579 0.835079 0.844567 0.854039 0.863494 0.872931 0.882347 0.891743 0.901115 0.910463 0.919786 0.929083 0.938351 0.947591 0.9568 0.965979 0.975125 0.984237 0.993316 1.00236 1.01137 1.02033 1.02927 1.03816 1.04701 1.05582 1.06459 1.07332 1.082 1.09064 1.09923 1.10777 1.11627 1.12472 1.13313 1.14148 1.14978 1.15803 1.16623 1.17438 1.18247 1.19052 1.1985 1.20643 1.21431 1.22213 1.22989 1.2376 1.24525 1.25284 1.26037 1.26784 1.27526 1.28261 1.28991 1.29715 1.30433 1.31146 1.31852 1.32553 1.33249 1.33939 1.34624 1.35305 1.35981 1.36652 1.37321 1.37986 1.3865 1.39312 1.39974 1.40637 1.41302 1.4197 1.42642 1.43317 1.43993 
0.621474 0.629952 0.638511 0.647175 0.655953 0.664843 0.673839 0.682931 0.692106 0.701353 0.71066 0.720017 0.729415 0.738846 0.748303 0.757781 0.767274 0.776778 0.786288 0.7958 0.805313 0.814822 0.824325 0.83382 0.843305 0.852777 0.862236 0.871678 0.881102 0.890507 0.899891 0.909254 0.918592 0.927906 0.937194 0.946455 0.955687 0.96489 0.974062 0.983202 0.992309 1.00138 1.01042 1.01942 1.02839 1.03732 1.04621 1.05506 1.06386 1.07263 1.08136 1.09004 1.09867 1.10727 1.11581 1.12431 1.13276 1.14117 1.14952 1.15783 1.16608 1.17428 1.18244 1.19053 1.19858 1.20657 1.21451 1.22239 1.23021 1.23798 1.2457 1.25335 1.26095 1.26849 1.27598 1.2834 1.29077 1.29808 1.30533 1.31253 1.31966 1.32675 1.33377 1.34075 1.34767 1.35454 1.36136 1.36814 1.37488 1.38158 1.38826 1.3949 1.40154 1.40816 1.41478 1.4214 1.42803 1.43467 1.44132 1.44794 
0.629424 0.638047 0.646728 0.655485 0.664329 0.673263 0.682283 0.691383 0.700556 0.709792 0.719084 0.728422 0.737799 0.747209 0.756645 0.766101 0.775572 0.785055 0.794545 0.804039 0.813533 0.823025 0.832512 0.841991 0.851461 0.86092 0.870364 0.879794 0.889207 0.898601 0.907975 0.917327 0.926657 0.935962 0.945242 0.954495 0.96372 0.972916 0.982082 0.991217 1.00032 1.00939 1.01842 1.02742 1.03638 1.04531 1.05419 1.06304 1.07185 1.08061 1.08934 1.09802 1.10665 1.11524 1.12379 1.13229 1.14074 1.14915 1.1575 1.16581 1.17407 1.18227 1.19043 1.19853 1.20658 1.21458 1.22252 1.2304 1.23824 1.24601 1.25373 1.26139 1.269 1.27655 1.28404 1.29148 1.29886 1.30618 1.31344 1.32065 1.3278 1.3349 1.34194 1.34893 1.35586 1.36275 1.36959 1.37638 1.38314 1.38985 1.39654 1.40319 1.40983 1.41644 1.42304 1.42963 1.43622 1.44279 1.44934 1.45585 
0.637282 0.646022 0.654805 0.663645 0.672552 0.68153 0.690579 0.699695 0.708873 0.718107 0.727391 0.736717 0.74608 0.755473 0.764891 0.77433 0.783784 0.793249 0.802721 0.812198 0.821676 0.831152 0.840624 0.85009 0.859546 0.868991 0.878424 0.887842 0.897244 0.906627 0.915991 0.925334 0.934655 0.943952 0.953224 0.96247 0.971689 0.980878 0.990038 0.999167 1.00826 1.01733 1.02636 1.03535 1.04431 1.05323 1.06212 1.07096 1.07977 1.08853 1.09725 1.10593 1.11457 1.12316 1.13171 1.14021 1.14866 1.15707 1.16542 1.17373 1.18199 1.1902 1.19836 1.20646 1.21452 1.22252 1.23046 1.23835 1.24619 1.25397 1.2617 1.26937 1.27698 1.28454 1.29204 1.29949 1.30688 1.31421 1.32148 1.3287 1.33586 1.34297 1.35002 1.35702 1.36397 1.37087 1.37773 1.38453 1.3913 1.39802 1.40471 1.41137 1.418 1.4246 1.43118 1.43774 1.44427 1.45078 1.45725 1.46368 
0.645054 0.653891 0.66276 0.671674 0.680639 0.689662 0.698741 0.707877 0.717066 0.726303 0.735585 0.744904 0.754258 0.763639 0.773044 0.782468 0.791907 0.801358 0.810815 0.820278 0.829741 0.839204 0.848662 0.858114 0.867558 0.876992 0.886413 0.89582 0.905212 0.914585 0.92394 0.933274 0.942587 0.951876 0.961141 0.97038 0.979592 0.988775 0.99793 1.00705 1.01615 1.02521 1.03423 1.04322 1.05218 1.0611 1.06998 1.07882 1.08762 1.09638 1.10511 1.11378 1.12242 1.13101 1.13956 1.14806 1.15651 1.16492 1.17328 1.18159 1.18985 1.19806 1.20622 1.21433 1.22239 1.23039 1.23834 1.24624 1.25408 1.26187 1.2696 1.27728 1.2849 1.29247 1.29997 1.30743 1.31482 1.32216 1.32945 1.33667 1.34385 1.35097 1.35803 1.36504 1.372 1.37891 1.38577 1.39259 1.39936 1.40609 1.41278 1.41943 1.42605 1.43264 1.4392 1.44572 1.45221 1.45867 1.46507 1.47142 
0.652747 0.661665 0.670608 0.679585 0.688604 0.697668 0.706779 0.715937 0.72514 0.734385 0.743668 0.752986 0.762334 0.771707 0.781103 0.790516 0.799943 0.809381 0.818826 0.828276 0.837727 0.847177 0.856624 0.866064 0.875497 0.88492 0.894331 0.903728 0.913109 0.922474 0.93182 0.941146 0.950451 0.959732 0.96899 0.978222 0.987428 0.996606 1.00575 1.01487 1.02396 1.03302 1.04204 1.05103 1.05998 1.06889 1.07777 1.08661 1.09541 1.10417 1.11289 1.12157 1.13021 1.1388 1.14734 1.15585 1.1643 1.17271 1.18107 1.18938 1.19765 1.20586 1.21402 1.22213 1.23019 1.2382 1.24616 1.25406 1.2619 1.2697 1.27744 1.28512 1.29275 1.30032 1.30783 1.31529 1.3227 1.33005 1.33734 1.34458 1.35176 1.35888 1.36596 1.37298 1.37995 1.38686 1.39373 1.40055 1.40733 1.41406 1.42075 1.4274 1.434 1.44058 1.44711 1.4536 1.46005 1.46645 1.47281 1.47909 
0.660363 0.66935 0.678356 0.68739 0.696457 0.70556 0.714702 0.723883 0.733102 0.742357 0.751646 0.760964 0.77031 0.779679 0.789068 0.798473 0.807891 0.817319 0.826754 0.836193 0.845633 0.855073 0.864508 0.873939 0.883361 0.892774 0.902175 0.911563 0.920936 0.930292 0.93963 0.948948 0.958245 0.96752 0.976771 0.985997 0.995197 1.00437 1.01351 1.02263 1.03171 1.04076 1.04978 1.05876 1.06771 1.07663 1.0855 1.09434 1.10314 1.1119 1.12062 1.12929 1.13793 1.14652 1.15506 1.16357 1.17202 1.18043 1.18879 1.19711 1.20537 1.21359 1.22175 1.22987 1.23793 1.24594 1.2539 1.26181 1.26966 1.27746 1.2852 1.29289 1.30052 1.3081 1.31562 1.32309 1.3305 1.33786 1.34516 1.3524 1.35959 1.36672 1.3738 1.38083 1.38781 1.39473 1.4016 1.40843 1.4152 1.42193 1.42862 1.43526 1.44185 1.44841 1.45491 1.46138 1.46779 1.47415 1.48046 1.48669 
0.667904 0.67695 0.686012 0.695096 0.704205 0.713345 0.722517 0.731721 0.740957 0.750224 0.75952 0.768842 0.778188 0.787555 0.79694 0.806339 0.815751 0.825171 0.834597 0.844027 0.853459 0.862889 0.872315 0.881736 0.89115 0.900553 0.909946 0.919325 0.92869 0.938038 0.947369 0.95668 0.96597 0.975238 0.984483 0.993703 1.0029 1.01206 1.0212 1.03031 1.03939 1.04844 1.05745 1.06643 1.07538 1.08429 1.09316 1.102 1.1108 1.11955 1.12827 1.13695 1.14558 1.15417 1.16272 1.17122 1.17968 1.18809 1.19645 1.20477 1.21303 1.22125 1.22942 1.23754 1.2456 1.25362 1.26158 1.26949 1.27735 1.28515 1.2929 1.30059 1.30823 1.31581 1.32334 1.33081 1.33823 1.34559 1.3529 1.36015 1.36734 1.37448 1.38157 1.3886 1.39558 1.40251 1.40939 1.41621 1.42299 1.42971 1.43639 1.44302 1.44961 1.45614 1.46263 1.46906 1.47544 1.48177 1.48803 1.49422 
0.675373 0.68447 0.69358 0.702707 0.711856 0.721029 0.730229 0.739456 0.74871 0.75799 0.767295 0.776622 0.785971 0.795338 0.80472 0.814116 0.823522 0.832937 0.842356 0.851779 0.861203 0.870625 0.880044 0.889456 0.898862 0.908258 0.917642 0.927014 0.936371 0.945712 0.955036 0.96434 0.973624 0.982886 0.992125 1.00134 1.01053 1.01969 1.02882 1.03793 1.047 1.05605 1.06506 1.07404 1.08298 1.09189 1.10076 1.10959 1.11839 1.12714 1.13586 1.14454 1.15317 1.16176 1.17031 1.17881 1.18727 1.19568 1.20404 1.21236 1.22063 1.22885 1.23702 1.24514 1.25321 1.26122 1.26919 1.2771 1.28496 1.29277 1.30052 1.30822 1.31586 1.32345 1.33099 1.33846 1.34589 1.35325 1.36056 1.36782 1.37502 1.38217 1.38926 1.39629 1.40328 1.41021 1.41708 1.42391 1.43068 1.4374 1.44407 1.45069 1.45726 1.46378 1.47025 1.47666 1.48301 1.4893 1.49552 1.50168 
0.682769 0.691911 0.701063 0.710229 0.719413 0.728618 0.737844 0.747092 0.756363 0.765657 0.774972 0.784307 0.793659 0.803028 0.81241 0.821804 0.831207 0.840617 0.850031 0.859448 0.868866 0.878281 0.887693 0.897099 0.906497 0.915885 0.925263 0.934628 0.943978 0.953313 0.96263 0.971928 0.981206 0.990462 0.999696 1.00891 1.01809 1.02725 1.03638 1.04548 1.05455 1.06359 1.0726 1.08157 1.09051 1.09942 1.10829 1.11712 1.12591 1.13467 1.14338 1.15206 1.16069 1.16928 1.17783 1.18633 1.19479 1.2032 1.21156 1.21988 1.22815 1.23637 1.24455 1.25267 1.26074 1.26876 1.27673 1.28465 1.29251 1.30032 1.30808 1.31578 1.32343 1.33102 1.33856 1.34604 1.35347 1.36084 1.36815 1.37541 1.38262 1.38977 1.39686 1.4039 1.41089 1.41782 1.42469 1.43152 1.43829 1.445 1.45167 1.45828 1.46483 1.47133 1.47778 1.48416 1.49049 1.49675 1.50294 1.50906 
0.690093 0.699275 0.708464 0.717666 0.726881 0.736114 0.745364 0.754634 0.763922 0.773229 0.782555 0.791897 0.801255 0.810627 0.82001 0.829403 0.838804 0.848211 0.857622 0.867034 0.876447 0.885856 0.895262 0.904662 0.914054 0.923437 0.932808 0.942167 0.951511 0.960839 0.970151 0.979443 0.988716 0.997967 1.0072 1.0164 1.02558 1.03473 1.04386 1.05295 1.06202 1.07106 1.08006 1.08903 1.09797 1.10688 1.11574 1.12457 1.13337 1.14212 1.15083 1.15951 1.16814 1.17673 1.18527 1.19378 1.20224 1.21065 1.21902 1.22733 1.23561 1.24383 1.252 1.26013 1.2682 1.27623 1.2842 1.29212 1.29998 1.3078 1.31556 1.32326 1.33091 1.33851 1.34605 1.35354 1.36097 1.36835 1.37567 1.38293 1.39014 1.39729 1.40439 1.41143 1.41841 1.42534 1.43222 1.43904 1.44581 1.45252 1.45917 1.46577 1.47231 1.4788 1.48522 1.49159 1.49789 1.50412 1.51029 1.51638 
0.697347 0.706562 0.715785 0.725018 0.734262 0.743521 0.752794 0.762083 0.771388 0.780709 0.790045 0.799396 0.80876 0.818135 0.827521 0.836915 0.846315 0.85572 0.865128 0.874537 0.883946 0.893351 0.902752 0.912146 0.921533 0.93091 0.940276 0.949629 0.958968 0.968291 0.977597 0.986884 0.996152 1.0054 1.01462 1.02382 1.033 1.04215 1.05127 1.06036 1.06942 1.07846 1.08746 1.09643 1.10536 1.11426 1.12313 1.13196 1.14075 1.1495 1.15821 1.16689 1.17552 1.18411 1.19266 1.20116 1.20962 1.21803 1.2264 1.23472 1.24299 1.25122 1.25939 1.26752 1.27559 1.28362 1.29159 1.29952 1.30739 1.3152 1.32297 1.33067 1.33833 1.34593 1.35347 1.36096 1.3684 1.37578 1.3831 1.39037 1.39758 1.40473 1.41183 1.41887 1.42586 1.43279 1.43966 1.44648 1.45324 1.45994 1.46659 1.47318 1.47971 1.48618 1.49258 1.49893 1.50521 1.51142 1.51756 1.52362 
0.704528 0.713775 0.723028 0.732288 0.741559 0.750841 0.760135 0.769443 0.778764 0.788098 0.797446 0.806805 0.816175 0.825555 0.834944 0.844339 0.85374 0.863145 0.872551 0.881957 0.891362 0.900764 0.910161 0.919551 0.928933 0.938306 0.947667 0.957015 0.966349 0.975667 0.984968 0.994251 1.00351 1.01276 1.02198 1.03117 1.04034 1.04949 1.05861 1.0677 1.07676 1.08579 1.09479 1.10375 1.11268 1.12158 1.13045 1.13927 1.14806 1.15681 1.16553 1.1742 1.18283 1.19142 1.19996 1.20847 1.21693 1.22534 1.23371 1.24203 1.2503 1.25853 1.26671 1.27484 1.28291 1.29094 1.29892 1.30684 1.31471 1.32253 1.3303 1.33801 1.34567 1.35327 1.36082 1.36831 1.37575 1.38313 1.39046 1.39773 1.40494 1.41209 1.41919 1.42624 1.43322 1.44015 1.44702 1.45383 1.46059 1.46728 1.47392 1.4805 1.48702 1.49347 1.49986 1.50619 1.51245 1.51864 1.52475 1.53079 
0.711638 0.720913 0.730192 0.739478 0.748772 0.758076 0.76739 0.776715 0.786052 0.795399 0.804757 0.814125 0.823502 0.832888 0.84228 0.851678 0.86108 0.870484 0.879889 0.889294 0.898697 0.908096 0.91749 0.926876 0.936255 0.945623 0.95498 0.964324 0.973653 0.982967 0.992264 1.00154 1.0108 1.02004 1.02925 1.03845 1.04761 1.05676 1.06587 1.07496 1.08401 1.09304 1.10204 1.111 1.11993 1.12883 1.13769 1.14652 1.1553 1.16405 1.17277 1.18144 1.19007 1.19866 1.2072 1.21571 1.22417 1.23258 1.24095 1.24927 1.25755 1.26577 1.27395 1.28208 1.29016 1.29819 1.30617 1.3141 1.32197 1.32979 1.33756 1.34527 1.35294 1.36054 1.36809 1.37559 1.38303 1.39041 1.39774 1.40501 1.41222 1.41938 1.42648 1.43352 1.4405 1.44743 1.45429 1.4611 1.46785 1.47454 1.48117 1.48774 1.49425 1.50069 1.50706 1.51337 1.51961 1.52578 1.53188 1.5379 
0.718677 0.727976 0.737279 0.746588 0.755904 0.765228 0.77456 0.783902 0.793252 0.802612 0.811981 0.821358 0.830742 0.840133 0.849529 0.85893 0.868334 0.877739 0.887144 0.896548 0.905949 0.915346 0.924737 0.934121 0.943496 0.952861 0.962214 0.971555 0.98088 0.99019 0.999483 1.00876 1.01801 1.02725 1.03646 1.04565 1.05481 1.06395 1.07306 1.08215 1.0912 1.10023 1.10922 1.11818 1.12711 1.136 1.14486 1.15369 1.16247 1.17122 1.17993 1.1886 1.19723 1.20582 1.21437 1.22287 1.23133 1.23975 1.24812 1.25644 1.26471 1.27294 1.28112 1.28925 1.29734 1.30537 1.31335 1.32128 1.32915 1.33698 1.34475 1.35246 1.36013 1.36773 1.37529 1.38278 1.39022 1.39761 1.40494 1.41221 1.41942 1.42658 1.43368 1.44072 1.4477 1.45462 1.46149 1.46829 1.47504 1.48172 1.48834 1.4949 1.50139 1.50782 1.51418 1.52048 1.5267 1.53285 1.53893 1.54493 
0.725643 0.734965 0.74429 0.75362 0.762956 0.772298 0.781647 0.791003 0.800368 0.809739 0.819118 0.828504 0.837895 0.847292 0.856693 0.866097 0.875503 0.88491 0.894315 0.903719 0.913119 0.922515 0.931904 0.941286 0.950658 0.96002 0.96937 0.978707 0.98803 0.997336 1.00663 1.0159 1.02515 1.03438 1.04359 1.05277 1.06193 1.07107 1.08018 1.08926 1.09831 1.10733 1.11633 1.12529 1.13421 1.14311 1.15196 1.16079 1.16957 1.17832 1.18703 1.1957 1.20433 1.21292 1.22146 1.22997 1.23842 1.24684 1.25521 1.26353 1.27181 1.28004 1.28822 1.29635 1.30444 1.31247 1.32045 1.32838 1.33626 1.34408 1.35186 1.35957 1.36724 1.37485 1.3824 1.3899 1.39734 1.40473 1.41206 1.41933 1.42655 1.4337 1.4408 1.44784 1.45482 1.46174 1.4686 1.4754 1.48214 1.48881 1.49542 1.50197 1.50846 1.51487 1.52122 1.5275 1.53371 1.53985 1.54591 1.55189 
0.732537 0.741879 0.751224 0.760573 0.769927 0.779286 0.788651 0.798021 0.807398 0.816782 0.82617 0.835565 0.844963 0.854366 0.863772 0.87318 0.882588 0.891996 0.901403 0.910807 0.920207 0.929602 0.938989 0.948369 0.95774 0.967099 0.976447 0.985781 0.995101 1.0044 1.01369 1.02296 1.03221 1.04144 1.05064 1.05982 1.06898 1.07811 1.08722 1.0963 1.10535 1.11437 1.12336 1.13232 1.14124 1.15013 1.15899 1.16781 1.17659 1.18534 1.19405 1.20272 1.21135 1.21994 1.22848 1.23698 1.24544 1.25386 1.26223 1.27055 1.27883 1.28706 1.29524 1.30338 1.31146 1.3195 1.32748 1.33541 1.34329 1.35112 1.35889 1.36661 1.37428 1.38189 1.38944 1.39694 1.40439 1.41177 1.4191 1.42637 1.43359 1.44074 1.44784 1.45488 1.46186 1.46877 1.47563 1.48242 1.48915 1.49582 1.50243 1.50897 1.51544 1.52185 1.52819 1.53445 1.54065 1.54677 1.55281 1.55878 
0.739358 0.748719 0.758082 0.767448 0.776818 0.786193 0.795572 0.804957 0.814346 0.82374 0.833138 0.842541 0.851947 0.861355 0.870766 0.880177 0.889589 0.898999 0.908408 0.917812 0.927212 0.936606 0.945993 0.955372 0.964741 0.974098 0.983444 0.992776 1.00209 1.01139 1.02068 1.02994 1.03919 1.04841 1.05762 1.0668 1.07595 1.08508 1.09419 1.10326 1.11231 1.12133 1.13032 1.13927 1.1482 1.15709 1.16594 1.17476 1.18354 1.19229 1.201 1.20967 1.21829 1.22688 1.23543 1.24393 1.25239 1.26081 1.26918 1.2775 1.28578 1.29401 1.30219 1.31033 1.31841 1.32645 1.33443 1.34236 1.35024 1.35807 1.36585 1.37357 1.38124 1.38885 1.3964 1.4039 1.41135 1.41874 1.42607 1.43334 1.44055 1.44771 1.4548 1.46184 1.46881 1.47572 1.48258 1.48937 1.49609 1.50275 1.50935 1.51588 1.52235 1.52874 1.53507 1.54132 1.54751 1.55361 1.55964 1.5656 
0.746106 0.755484 0.764863 0.774245 0.783631 0.79302 0.802413 0.811809 0.82121 0.830614 0.840022 0.849432 0.858845 0.86826 0.877676 0.887091 0.896506 0.905919 0.915329 0.924734 0.934135 0.943529 0.952916 0.962293 0.971661 0.981017 0.990361 0.999691 1.00901 1.0183 1.02759 1.03685 1.04609 1.05532 1.06452 1.07369 1.08285 1.09198 1.10108 1.11015 1.1192 1.12821 1.1372 1.14615 1.15507 1.16396 1.17282 1.18164 1.19042 1.19916 1.20787 1.21654 1.22516 1.23375 1.2423 1.2508 1.25926 1.26768 1.27605 1.28437 1.29265 1.30088 1.30907 1.3172 1.32529 1.33332 1.34131 1.34924 1.35712 1.36495 1.37273 1.38045 1.38812 1.39573 1.40329 1.41079 1.41823 1.42562 1.43295 1.44022 1.44743 1.45459 1.46168 1.46871 1.47569 1.4826 1.48944 1.49623 1.50295 1.5096 1.51619 1.52272 1.52917 1.53556 1.54187 1.54812 1.55429 1.56038 1.5664 1.57234 
0.75278 0.762173 0.771568 0.780965 0.790364 0.799767 0.809172 0.81858 0.827992 0.837406 0.846822 0.85624 0.86566 0.875081 0.884501 0.893921 0.903339 0.912755 0.922167 0.931574 0.940975 0.95037 0.959756 0.969133 0.9785 0.987855 0.997197 1.00653 1.01584 1.02514 1.03442 1.04368 1.05292 1.06214 1.07134 1.08051 1.08966 1.09879 1.10789 1.11696 1.12601 1.13502 1.144 1.15296 1.16188 1.17076 1.17962 1.18843 1.19722 1.20596 1.21467 1.22333 1.23196 1.24055 1.24909 1.2576 1.26605 1.27447 1.28284 1.29117 1.29945 1.30768 1.31586 1.324 1.33208 1.34012 1.34811 1.35604 1.36392 1.37175 1.37953 1.38725 1.39492 1.40253 1.41009 1.41759 1.42504 1.43243 1.43975 1.44702 1.45424 1.46139 1.46848 1.47551 1.48248 1.48939 1.49623 1.50301 1.50972 1.51637 1.52296 1.52947 1.53592 1.5423 1.5486 1.55483 1.56099 1.56708 1.57308 1.57901 
0.759381 0.768787 0.778196 0.787606 0.797019 0.806434 0.815851 0.82527 0.834691 0.844114 0.853539 0.862965 0.872391 0.881818 0.891243 0.900667 0.910089 0.919507 0.928921 0.93833 0.947733 0.957128 0.966514 0.975891 0.985258 0.994612 1.00395 1.01328 1.02259 1.03189 1.04117 1.05043 1.05967 1.06888 1.07808 1.08725 1.0964 1.10553 1.11463 1.1237 1.13274 1.14175 1.15073 1.15969 1.1686 1.17749 1.18634 1.19516 1.20394 1.21268 1.22139 1.23005 1.23868 1.24727 1.25581 1.26431 1.27277 1.28119 1.28956 1.29789 1.30617 1.3144 1.32258 1.33072 1.33881 1.34684 1.35483 1.36276 1.37065 1.37848 1.38626 1.39398 1.40165 1.40926 1.41682 1.42432 1.43176 1.43915 1.44648 1.45375 1.46096 1.46811 1.4752 1.48223 1.48919 1.49609 1.50293 1.50971 1.51642 1.52306 1.52964 1.53615 1.54259 1.54895 1.55525 1.56147 1.56762 1.5737 1.57969 1.58561 
0.765906 0.775326 0.784747 0.79417 0.803595 0.813021 0.822449 0.831878 0.841309 0.850741 0.860173 0.869606 0.879039 0.888471 0.897902 0.90733 0.916755 0.926177 0.935593 0.945004 0.954407 0.963803 0.973191 0.982568 0.991934 1.00129 1.01063 1.01995 1.02927 1.03856 1.04784 1.05709 1.06633 1.07555 1.08474 1.09392 1.10306 1.11219 1.12128 1.13035 1.13939 1.1484 1.15739 1.16634 1.17525 1.18414 1.19299 1.2018 1.21058 1.21933 1.22803 1.2367 1.24532 1.25391 1.26245 1.27096 1.27942 1.28783 1.2962 1.30453 1.31281 1.32104 1.32923 1.33736 1.34545 1.35349 1.36147 1.36941 1.37729 1.38512 1.3929 1.40062 1.40829 1.41591 1.42346 1.43097 1.43841 1.4458 1.45312 1.46039 1.4676 1.47475 1.48184 1.48886 1.49582 1.50272 1.50956 1.51633 1.52303 1.52967 1.53624 1.54274 1.54917 1.55553 1.56182 1.56804 1.57418 1.58024 1.58622 1.59213 
0.772356 0.781788 0.791221 0.800656 0.810091 0.819528 0.828966 0.838405 0.847845 0.857285 0.866725 0.876165 0.885604 0.895041 0.904477 0.913909 0.923338 0.932762 0.942181 0.951594 0.960999 0.970396 0.979784 0.989162 0.998528 1.00788 1.01722 1.02655 1.03586 1.04515 1.05443 1.06368 1.07292 1.08214 1.09133 1.1005 1.10965 1.11877 1.12786 1.13693 1.14597 1.15498 1.16396 1.17291 1.18182 1.19071 1.19956 1.20837 1.21715 1.22589 1.2346 1.24326 1.25189 1.26047 1.26902 1.27752 1.28598 1.29439 1.30277 1.31109 1.31937 1.3276 1.33579 1.34393 1.35201 1.36005 1.36804 1.37598 1.38386 1.39169 1.39947 1.40719 1.41486 1.42247 1.43003 1.43753 1.44498 1.45236 1.45969 1.46695 1.47416 1.48131 1.48839 1.49541 1.50237 1.50927 1.5161 1.52287 1.52957 1.5362 1.54276 1.54926 1.55568 1.56203 1.56831 1.57452 1.58065 1.58671 1.59268 1.59858 
0.778731 0.788174 0.797618 0.807063 0.816509 0.825955 0.835403 0.844851 0.854299 0.863747 0.873194 0.882641 0.892085 0.901528 0.910969 0.920405 0.929838 0.939265 0.948687 0.958101 0.967508 0.976907 0.986295 0.995674 1.00504 1.01439 1.02373 1.03306 1.04237 1.05166 1.06094 1.07019 1.07943 1.08864 1.09783 1.107 1.11615 1.12527 1.13436 1.14343 1.15247 1.16147 1.17045 1.1794 1.18832 1.1972 1.20605 1.21486 1.22364 1.23238 1.24108 1.24975 1.25837 1.26696 1.2755 1.28401 1.29247 1.30088 1.30925 1.31758 1.32586 1.33409 1.34228 1.35041 1.3585 1.36654 1.37453 1.38246 1.39035 1.39818 1.40596 1.41368 1.42135 1.42896 1.43652 1.44402 1.45146 1.45884 1.46617 1.47344 1.48064 1.48778 1.49487 1.50189 1.50884 1.51574 1.52256 1.52932 1.53602 1.54264 1.5492 1.55569 1.56211 1.56845 1.57473 1.58093 1.58705 1.59309 1.59906 1.60495 
0.785029 0.794482 0.803936 0.813391 0.822847 0.832303 0.841759 0.851215 0.860671 0.870126 0.879581 0.889033 0.898484 0.907932 0.917377 0.926818 0.936254 0.945684 0.955108 0.964525 0.973934 0.983334 0.992724 1.0021 1.01147 1.02082 1.03016 1.03949 1.0488 1.05809 1.06736 1.07662 1.08585 1.09507 1.10426 1.11343 1.12257 1.13169 1.14078 1.14985 1.15888 1.16789 1.17687 1.18582 1.19473 1.20361 1.21246 1.22127 1.23005 1.23879 1.24749 1.25616 1.26478 1.27337 1.28191 1.29041 1.29887 1.30729 1.31566 1.32398 1.33226 1.3405 1.34868 1.35682 1.36491 1.37295 1.38093 1.38887 1.39675 1.40459 1.41236 1.42009 1.42775 1.43537 1.44292 1.45042 1.45786 1.46525 1.47257 1.47984 1.48704 1.49418 1.50126 1.50828 1.51523 1.52212 1.52894 1.5357 1.54239 1.54901 1.55556 1.56205 1.56846 1.5748 1.58106 1.58725 1.59337 1.59941 1.60537 1.61125 
0.79125 0.800713 0.810177 0.819641 0.829105 0.83857 0.848034 0.857498 0.866961 0.876424 0.885885 0.895343 0.904799 0.914253 0.923702 0.933147 0.942586 0.95202 0.961447 0.970866 0.980277 0.989678 0.999069 1.00845 1.01782 1.02717 1.03651 1.04584 1.05514 1.06444 1.07371 1.08296 1.0922 1.10141 1.1106 1.11977 1.12891 1.13803 1.14712 1.15619 1.16522 1.17423 1.18321 1.19215 1.20106 1.20995 1.21879 1.2276 1.23638 1.24512 1.25382 1.26249 1.27111 1.2797 1.28824 1.29674 1.3052 1.31362 1.32199 1.33031 1.33859 1.34683 1.35501 1.36315 1.37124 1.37927 1.38726 1.3952 1.40308 1.41091 1.41869 1.42641 1.43408 1.44169 1.44925 1.45675 1.46419 1.47157 1.47889 1.48615 1.49336 1.5005 1.50757 1.51459 1.52154 1.52842 1.53524 1.54199 1.54868 1.5553 1.56184 1.56832 1.57473 1.58106 1.58732 1.5935 1.59961 1.60564 1.61159 1.61747 
0.797395 0.806866 0.816338 0.825811 0.835283 0.844756 0.854228 0.8637 0.87317 0.882639 0.892106 0.90157 0.911032 0.92049 0.929943 0.939392 0.948835 0.958272 0.967701 0.977123 0.986536 0.995939 1.00533 1.01471 1.02408 1.03344 1.04278 1.0521 1.06141 1.0707 1.07997 1.08923 1.09846 1.10767 1.11686 1.12603 1.13517 1.14429 1.15338 1.16244 1.17148 1.18048 1.18946 1.19841 1.20732 1.2162 1.22505 1.23386 1.24263 1.25137 1.26007 1.26874 1.27736 1.28595 1.29449 1.30299 1.31145 1.31986 1.32823 1.33656 1.34484 1.35307 1.36126 1.3694 1.37748 1.38552 1.39351 1.40144 1.40933 1.41716 1.42494 1.43266 1.44033 1.44794 1.45549 1.46299 1.47043 1.47781 1.48513 1.49239 1.49959 1.50673 1.5138 1.52082 1.52776 1.53464 1.54146 1.54821 1.55489 1.5615 1.56804 1.57451 1.58091 1.58724 1.59349 1.59967 1.60577 1.6118 1.61774 1.62361 
0.803461 0.812941 0.822421 0.831901 0.841382 0.850862 0.860341 0.86982 0.879297 0.888772 0.898244 0.907714 0.917181 0.926643 0.936101 0.945554 0.955 0.96444 0.973872 0.983296 0.992711 1.00212 1.01151 1.02089 1.03026 1.03962 1.04896 1.05828 1.06759 1.07688 1.08616 1.09541 1.10464 1.11385 1.12304 1.13221 1.14135 1.15047 1.15956 1.16862 1.17765 1.18666 1.19564 1.20458 1.21349 1.22237 1.23122 1.24003 1.2488 1.25754 1.26624 1.27491 1.28353 1.29211 1.30066 1.30916 1.31762 1.32603 1.3344 1.34273 1.35101 1.35924 1.36743 1.37556 1.38365 1.39169 1.39967 1.40761 1.41549 1.42332 1.4311 1.43882 1.44649 1.4541 1.46165 1.46915 1.47659 1.48397 1.49129 1.49855 1.50574 1.51288 1.51995 1.52696 1.5339 1.54078 1.5476 1.55434 1.56102 1.56762 1.57416 1.58063 1.58702 1.59334 1.59959 1.60576 1.61186 1.61788 1.62381 1.62967 
0.809449 0.818936 0.828424 0.837912 0.847399 0.856887 0.866373 0.875858 0.885341 0.894822 0.9043 0.913775 0.923246 0.932713 0.942175 0.951631 0.961081 0.970524 0.979959 0.989385 0.998802 1.00821 1.0176 1.02699 1.03636 1.04571 1.05506 1.06438 1.07369 1.08298 1.09225 1.10151 1.11074 1.11995 1.12914 1.13831 1.14745 1.15656 1.16565 1.17472 1.18375 1.19275 1.20173 1.21067 1.21958 1.22846 1.23731 1.24612 1.25489 1.26363 1.27233 1.281 1.28962 1.2982 1.30675 1.31525 1.3237 1.33212 1.34049 1.34881 1.35709 1.36533 1.37351 1.38165 1.38974 1.39777 1.40576 1.41369 1.42158 1.42941 1.43718 1.44491 1.45257 1.46018 1.46773 1.47523 1.48267 1.49004 1.49736 1.50462 1.51182 1.51895 1.52602 1.53302 1.53996 1.54684 1.55365 1.56039 1.56706 1.57367 1.5802 1.58666 1.59305 1.59936 1.60561 1.61177 1.61786 1.62387 1.62981 1.63566 
0.815358 0.824852 0.834347 0.843842 0.853336 0.86283 0.872322 0.881813 0.891302 0.900789 0.910272 0.919752 0.929228 0.938699 0.948165 0.957625 0.967078 0.976524 0.985962 0.99539 1.00481 1.01422 1.02361 1.033 1.04237 1.05173 1.06107 1.0704 1.07971 1.089 1.09827 1.10752 1.11676 1.12597 1.13516 1.14432 1.15346 1.16258 1.17167 1.18073 1.18976 1.19877 1.20774 1.21668 1.2256 1.23447 1.24332 1.25213 1.2609 1.26964 1.27834 1.287 1.29563 1.30421 1.31275 1.32125 1.32971 1.33812 1.34649 1.35482 1.3631 1.37133 1.37952 1.38765 1.39574 1.40378 1.41176 1.4197 1.42758 1.43541 1.44318 1.45091 1.45857 1.46618 1.47373 1.48123 1.48866 1.49604 1.50335 1.51061 1.5178 1.52493 1.532 1.539 1.54594 1.55281 1.55962 1.56636 1.57303 1.57963 1.58615 1.59261 1.59899 1.60531 1.61154 1.6177 1.62379 1.62979 1.63572 1.64157 