# vtk DataFile Version 3.0
cell
ASCII
DATASET STRUCTURED_POINTS
DIMENSIONS 100 100 1
ORIGIN 0 0 0
SPACING 0.010000 0.010000 1
POINT_DATA 10000
SCALARS sample_scalars double
LOOKUP_TABLE default
0.557412 0.563472 0.571437 0.580169 0.589254 0.598526 0.607903 0.617347 0.626833 0.636346 0.645877 0.65542 0.664969 0.674522 0.684074 0.693623 0.703169 0.712707 0.722238 0.731759 0.741269 0.750768 0.760252 0.769723 0.779177 0.788615 0.798036 0.807437 0.816818 0.826179 0.835518 0.844835 0.854127 0.863395 0.872637 0.881853 0.891042 0.900202 0.909333 0.918433 0.927503 0.936541 0.945546 0.954518 0.963455 0.972357 0.981223 0.990052 0.998843 1.0076 1.01631 1.02498 1.03361 1.0422 1.05075 1.05925 1.06771 1.07613 1.0845 1.09282 1.1011 1.10933 1.11751 1.12564 1.13372 1.14175 1.14973 1.15765 1.16553 1.17335 1.18112 1.18883 1.19649 1.20409 1.21163 1.21912 1.22655 1.23392 1.24123 1.24849 1.25568 1.26282 1.26989 1.2769 1.28386 1.29075 1.29758 1.30435 1.31106 1.31771 1.32431 1.33086 1.33736 1.34382 1.35026 1.35671 1.36323 1.36994 1.37714 1.38571 
0.568964 0.574781 0.581953 0.589929 0.598374 0.607104 0.616015 0.625044 0.634156 0.643325 0.652537 0.66178 0.671045 0.680327 0.68962 0.698922 0.708229 0.717538 0.726848 0.736156 0.74546 0.754759 0.764052 0.773337 0.782612 0.791878 0.801131 0.810372 0.8196 0.828812 0.838009 0.847189 0.856351 0.865494 0.874617 0.88372 0.892802 0.901861 0.910896 0.919908 0.928894 0.937855 0.946789 0.955695 0.964572 0.973421 0.98224 0.991027 0.999783 1.00851 1.0172 1.02585 1.03448 1.04306 1.05162 1.06013 1.06861 1.07705 1.08545 1.09381 1.10213 1.11041 1.11864 1.12684 1.13499 1.1431 1.15117 1.15919 1.16717 1.1751 1.18299 1.19083 1.19862 1.20636 1.21406 1.2217 1.2293 1.23685 1.24435 1.2518 1.2592 1.26655 1.27385 1.2811 1.28829 1.29544 1.30254 1.3096 1.31661 1.32357 1.3305 1.3374 1.34428 1.35116 1.35806 1.36502 1.37213 1.37952 1.38744 1.39631 
0.578556 0.584684 0.591616 0.599169 0.607161 0.615454 0.623958 0.632612 0.641374 0.650216 0.659119 0.66807 0.677057 0.686073 0.695112 0.704169 0.71324 0.722322 0.731412 0.740508 0.749607 0.758709 0.76781 0.776911 0.786008 0.795101 0.804189 0.813271 0.822344 0.831409 0.840464 0.849508 0.85854 0.867559 0.876564 0.885555 0.89453 0.903488 0.912429 0.921351 0.930254 0.939138 0.948 0.956841 0.96566 0.974455 0.983227 0.991973 1.00069 1.00939 1.01806 1.0267 1.03531 1.0439 1.05245 1.06098 1.06947 1.07793 1.08636 1.09476 1.10312 1.11146 1.11975 1.12801 1.13624 1.14443 1.15258 1.1607 1.16878 1.17682 1.18483 1.19279 1.20072 1.20861 1.21645 1.22426 1.23203 1.23975 1.24744 1.25508 1.26268 1.27025 1.27777 1.28525 1.29269 1.30009 1.30746 1.31479 1.32209 1.32937 1.33662 1.34386 1.3511 1.35836 1.36567 1.37308 1.38064 1.38846 1.39668 1.40542 
0.587327 0.593732 0.600609 0.607925 0.6156 0.62355 0.63171 0.640029 0.64847 0.657005 0.665615 0.674284 0.683001 0.691758 0.700547 0.709363 0.718202 0.72706 0.735933 0.744819 0.753716 0.762621 0.771533 0.78045 0.789371 0.798294 0.807217 0.816139 0.82506 0.833978 0.842892 0.851801 0.860704 0.869599 0.878487 0.887366 0.896234 0.905092 0.913939 0.922773 0.931593 0.9404 0.949192 0.957968 0.966728 0.97547 0.984195 0.992901 1.00159 1.01026 1.0189 1.02753 1.03613 1.04471 1.05327 1.06181 1.07032 1.0788 1.08726 1.0957 1.10411 1.11249 1.12084 1.12917 1.13747 1.14574 1.15398 1.16219 1.17038 1.17853 1.18665 1.19474 1.2028 1.21083 1.21883 1.22679 1.23472 1.24263 1.25049 1.25833 1.26614 1.27391 1.28165 1.28937 1.29705 1.3047 1.31233 1.31994 1.32753 1.3351 1.34266 1.35023 1.35781 1.36542 1.37309 1.38086 1.38877 1.39688 1.40525 1.41391 
0.595688 0.602258 0.609116 0.61628 0.623721 0.631397 0.639265 0.647288 0.655436 0.663686 0.672018 0.680418 0.688876 0.697381 0.705926 0.714507 0.723118 0.731755 0.740414 0.749093 0.75779 0.766501 0.775226 0.783961 0.792707 0.80146 0.81022 0.818985 0.827754 0.836527 0.845301 0.854075 0.86285 0.871623 0.880394 0.889161 0.897925 0.906683 0.915436 0.924182 0.932921 0.941651 0.950373 0.959084 0.967786 0.976476 0.985154 0.99382 1.00247 1.01111 1.01974 1.02835 1.03694 1.04552 1.05408 1.06263 1.07116 1.07967 1.08816 1.09663 1.10508 1.11351 1.12193 1.13032 1.13869 1.14704 1.15537 1.16367 1.17196 1.18022 1.18846 1.19668 1.20487 1.21304 1.22118 1.22931 1.23741 1.24548 1.25353 1.26156 1.26957 1.27755 1.28551 1.29345 1.30137 1.30927 1.31716 1.32503 1.3329 1.34076 1.34862 1.35649 1.36439 1.37232 1.38032 1.3884 1.39659 1.40493 1.41343 1.42207 
0.603807 0.610448 0.617274 0.624314 0.631568 0.639015 0.64663 0.654391 0.662272 0.670256 0.678327 0.686471 0.694678 0.70294 0.71125 0.719601 0.727988 0.736409 0.744858 0.753334 0.761833 0.770353 0.778892 0.787449 0.79602 0.804606 0.813205 0.821814 0.830433 0.839061 0.847697 0.856338 0.864986 0.873637 0.882292 0.89095 0.899609 0.908269 0.916928 0.925587 0.934245 0.9429 0.951552 0.9602 0.968843 0.977482 0.986114 0.994741 1.00336 1.01197 1.02058 1.02917 1.03776 1.04633 1.0549 1.06345 1.072 1.08053 1.08905 1.09756 1.10606 1.11454 1.12301 1.13147 1.13991 1.14834 1.15676 1.16516 1.17354 1.18191 1.19027 1.19861 1.20693 1.21524 1.22354 1.23182 1.24008 1.24833 1.25656 1.26478 1.27298 1.28117 1.28935 1.29751 1.30567 1.31381 1.32195 1.33008 1.33821 1.34635 1.3545 1.36266 1.37085 1.37909 1.38737 1.39573 1.40417 1.41271 1.42134 1.43004 
0.611761 0.618404 0.625173 0.632097 0.639185 0.646431 0.653822 0.661344 0.668981 0.676717 0.684542 0.692442 0.70041 0.708438 0.716518 0.724645 0.732816 0.741024 0.749268 0.757543 0.765848 0.77418 0.782537 0.790916 0.799317 0.807738 0.816177 0.824632 0.833103 0.841588 0.850086 0.858597 0.867118 0.875649 0.88419 0.892738 0.901294 0.909856 0.918424 0.926997 0.935574 0.944154 0.952737 0.961322 0.969909 0.978496 0.987083 0.99567 1.00426 1.01284 1.02142 1.03 1.03858 1.04716 1.05573 1.06429 1.07285 1.08141 1.08996 1.09851 1.10705 1.11558 1.12411 1.13263 1.14115 1.14965 1.15816 1.16665 1.17513 1.18361 1.19208 1.20055 1.209 1.21745 1.22589 1.23433 1.24275 1.25117 1.25958 1.26799 1.27638 1.28478 1.29317 1.30155 1.30993 1.31831 1.32669 1.33508 1.34347 1.35188 1.3603 1.36874 1.37721 1.38572 1.39427 1.40288 1.41155 1.42029 1.42907 1.43788 
0.61959 0.626188 0.632876 0.639679 0.64661 0.653671 0.660858 0.66816 0.675569 0.683074 0.690665 0.698334 0.706073 0.713874 0.721733 0.729643 0.737602 0.745603 0.753646 0.761725 0.76984 0.777987 0.786164 0.794369 0.802602 0.810859 0.819141 0.827444 0.835768 0.844113 0.852476 0.860856 0.869253 0.877666 0.886093 0.894534 0.902987 0.911453 0.91993 0.928418 0.936916 0.945422 0.953937 0.96246 0.97099 0.979527 0.988069 0.996618 1.00517 1.01373 1.02229 1.03086 1.03943 1.048 1.05657 1.06515 1.07373 1.08231 1.09089 1.09947 1.10806 1.11664 1.12523 1.13381 1.1424 1.15098 1.15957 1.16816 1.17674 1.18533 1.19391 1.2025 1.21108 1.21967 1.22825 1.23684 1.24543 1.25401 1.2626 1.27119 1.27978 1.28837 1.29697 1.30557 1.31417 1.32279 1.33141 1.34004 1.34868 1.35734 1.36602 1.37473 1.38346 1.39223 1.40104 1.40989 1.41878 1.42771 1.43666 1.4456 
0.627316 0.633835 0.640422 0.647097 0.653875 0.66076 0.667754 0.674851 0.682046 0.689332 0.696702 0.704149 0.711668 0.719252 0.726896 0.734597 0.742349 0.750149 0.757995 0.765882 0.77381 0.781776 0.789777 0.797811 0.805878 0.813975 0.822101 0.830255 0.838435 0.846641 0.85487 0.863122 0.871397 0.879692 0.888008 0.896342 0.904695 0.913066 0.921453 0.929857 0.938276 0.94671 0.955158 0.963619 0.972094 0.980581 0.98908 0.99759 1.00611 1.01464 1.02318 1.03174 1.0403 1.04887 1.05745 1.06603 1.07463 1.08323 1.09185 1.10047 1.10909 1.11773 1.12637 1.13502 1.14368 1.15234 1.16101 1.16969 1.17837 1.18706 1.19576 1.20447 1.21318 1.2219 1.23063 1.23937 1.24811 1.25686 1.26562 1.27439 1.28317 1.29196 1.30076 1.30957 1.3184 1.32723 1.33608 1.34495 1.35384 1.36275 1.37168 1.38064 1.38962 1.39864 1.40769 1.41677 1.42588 1.435 1.44413 1.45324 
0.634953 0.64137 0.647839 0.654379 0.661003 0.667717 0.674526 0.681428 0.68842 0.695497 0.702657 0.709892 0.7172 0.724574 0.732011 0.739508 0.747059 0.754664 0.762317 0.770018 0.777763 0.785551 0.793379 0.801246 0.80915 0.817089 0.825063 0.83307 0.841108 0.849177 0.857274 0.865401 0.873554 0.881734 0.88994 0.89817 0.906423 0.9147 0.923 0.93132 0.939662 0.948024 0.956406 0.964807 0.973227 0.981665 0.990121 0.998594 1.00708 1.01559 1.02411 1.03265 1.0412 1.04977 1.05836 1.06695 1.07557 1.0842 1.09284 1.10149 1.11016 1.11885 1.12755 1.13626 1.14498 1.15372 1.16248 1.17125 1.18003 1.18882 1.19764 1.20646 1.2153 1.22415 1.23302 1.24191 1.25081 1.25972 1.26865 1.2776 1.28657 1.29555 1.30455 1.31356 1.3226 1.33166 1.34073 1.34983 1.35896 1.3681 1.37728 1.38648 1.3957 1.40496 1.41424 1.42354 1.43287 1.44219 1.45151 1.4608 
0.642509 0.648806 0.655145 0.661543 0.668012 0.674559 0.681189 0.687903 0.6947 0.701578 0.708535 0.715567 0.722671 0.729844 0.73708 0.744379 0.751736 0.75915 0.766616 0.774134 0.781701 0.789315 0.796974 0.804676 0.812421 0.820206 0.82803 0.835892 0.843791 0.851725 0.859694 0.867696 0.875731 0.883797 0.891894 0.900021 0.908177 0.916362 0.924574 0.932814 0.94108 0.949371 0.957688 0.96603 0.974396 0.982786 0.991199 0.999635 1.00809 1.01658 1.02508 1.0336 1.04215 1.05072 1.05931 1.06792 1.07655 1.0852 1.09387 1.10256 1.11127 1.12001 1.12876 1.13754 1.14633 1.15515 1.16398 1.17284 1.18172 1.19062 1.19954 1.20848 1.21745 1.22643 1.23544 1.24447 1.25352 1.2626 1.2717 1.28082 1.28997 1.29914 1.30833 1.31755 1.32679 1.33606 1.34536 1.35468 1.36403 1.37341 1.38282 1.39225 1.40171 1.4112 1.42071 1.43023 1.43976 1.44929 1.45881 1.46829 
0.649988 0.656154 0.662355 0.668606 0.674918 0.681299 0.687754 0.694285 0.700894 0.707581 0.714343 0.721179 0.728087 0.735064 0.742107 0.749214 0.756382 0.76361 0.770895 0.778234 0.785627 0.793071 0.800564 0.808106 0.815694 0.823328 0.831005 0.838725 0.846487 0.85429 0.862131 0.870012 0.87793 0.885885 0.893875 0.901901 0.909962 0.918056 0.926183 0.934342 0.942533 0.950756 0.959009 0.967292 0.975606 0.983948 0.99232 1.00072 1.00915 1.01761 1.02609 1.0346 1.04314 1.05171 1.0603 1.06892 1.07757 1.08625 1.09495 1.10368 1.11243 1.12121 1.13002 1.13886 1.14772 1.15661 1.16553 1.17448 1.18345 1.19245 1.20148 1.21054 1.21962 1.22874 1.23788 1.24706 1.25626 1.26549 1.27476 1.28405 1.29337 1.30273 1.31211 1.32153 1.33097 1.34045 1.34996 1.3595 1.36907 1.37868 1.38831 1.39797 1.40766 1.41737 1.42709 1.43683 1.44658 1.45631 1.46603 1.4757 
0.657395 0.663421 0.669477 0.675577 0.681731 0.687947 0.69423 0.700584 0.707011 0.713512 0.720086 0.726733 0.733451 0.740238 0.747094 0.754015 0.761 0.768047 0.775155 0.782321 0.789544 0.796822 0.804154 0.811538 0.818974 0.826459 0.833993 0.841574 0.849202 0.856875 0.864592 0.872353 0.880157 0.888002 0.895888 0.903815 0.911781 0.919786 0.927829 0.93591 0.944028 0.952183 0.960374 0.9686 0.976862 0.985158 0.993489 1.00185 1.01025 1.01869 1.02715 1.03565 1.04419 1.05275 1.06135 1.06998 1.07865 1.08735 1.09608 1.10484 1.11364 1.12247 1.13133 1.14023 1.14916 1.15812 1.16712 1.17615 1.18522 1.19432 1.20346 1.21263 1.22184 1.23108 1.24036 1.24967 1.25902 1.26841 1.27783 1.28729 1.29679 1.30633 1.3159 1.3255 1.33515 1.34483 1.35454 1.36429 1.37408 1.3839 1.39375 1.40363 1.41354 1.42347 1.43341 1.44337 1.45332 1.46326 1.47318 1.48305 
0.664732 0.670612 0.676519 0.682466 0.688461 0.694513 0.700626 0.706807 0.713056 0.719376 0.725768 0.732232 0.738766 0.74537 0.752044 0.758785 0.765592 0.772464 0.779399 0.786396 0.793454 0.80057 0.807744 0.814975 0.822261 0.829602 0.836995 0.84444 0.851937 0.859483 0.867079 0.874723 0.882414 0.890152 0.897937 0.905766 0.91364 0.921558 0.929519 0.937523 0.945569 0.953657 0.961787 0.969957 0.978168 0.986419 0.994711 1.00304 1.01141 1.01982 1.02827 1.03676 1.04529 1.05385 1.06246 1.0711 1.07978 1.0885 1.09726 1.10606 1.1149 1.12378 1.13269 1.14165 1.15065 1.15969 1.16876 1.17788 1.18704 1.19624 1.20548 1.21477 1.22409 1.23346 1.24287 1.25232 1.26182 1.27135 1.28093 1.29056 1.30022 1.30993 1.31969 1.32948 1.33932 1.34919 1.35911 1.36907 1.37906 1.38909 1.39916 1.40925 1.41937 1.42951 1.43967 1.44983 1.45999 1.47014 1.48026 1.49033 
0.671999 0.67773 0.683486 0.689277 0.695114 0.701002 0.706949 0.712959 0.719035 0.72518 0.731395 0.737681 0.744037 0.750464 0.756961 0.763527 0.770161 0.776863 0.78363 0.790463 0.797359 0.804318 0.811339 0.81842 0.82556 0.832759 0.840015 0.847328 0.854696 0.862119 0.869595 0.877125 0.884707 0.89234 0.900024 0.907758 0.915541 0.923374 0.931255 0.939184 0.94716 0.955183 0.963252 0.971368 0.97953 0.987737 0.995989 1.00429 1.01263 1.02102 1.02945 1.03793 1.04645 1.05501 1.06362 1.07228 1.08098 1.08972 1.09851 1.10734 1.11622 1.12515 1.13412 1.14313 1.15219 1.1613 1.17046 1.17966 1.18891 1.19821 1.20755 1.21695 1.22639 1.23588 1.24542 1.255 1.26464 1.27432 1.28406 1.29384 1.30367 1.31355 1.32348 1.33346 1.34348 1.35355 1.36366 1.37382 1.38402 1.39425 1.40452 1.41483 1.42516 1.43551 1.44587 1.45624 1.46661 1.47695 1.48727 1.49754 
0.679199 0.684778 0.690381 0.696017 0.701695 0.707422 0.713205 0.719047 0.724954 0.730928 0.736971 0.743083 0.749267 0.755521 0.761847 0.768243 0.77471 0.781246 0.787851 0.794524 0.801263 0.808069 0.81494 0.821875 0.828873 0.835934 0.843056 0.850239 0.857482 0.864784 0.872144 0.879562 0.887036 0.894567 0.902153 0.909794 0.91749 0.925239 0.933041 0.940896 0.948804 0.956763 0.964774 0.972837 0.98095 0.989114 0.997329 1.00559 1.01391 1.02227 1.03069 1.03916 1.04767 1.05624 1.06485 1.07352 1.08223 1.091 1.09982 1.10869 1.11761 1.12658 1.1356 1.14467 1.1538 1.16298 1.17221 1.1815 1.19084 1.20023 1.20967 1.21917 1.22873 1.23834 1.248 1.25772 1.2675 1.27733 1.28721 1.29715 1.30714 1.31719 1.32729 1.33744 1.34765 1.3579 1.36821 1.37856 1.38895 1.39938 1.40986 1.42036 1.4309 1.44145 1.45202 1.46259 1.47316 1.48371 1.49422 1.5047 
0.686332 0.691758 0.697207 0.702688 0.708208 0.713776 0.719396 0.725075 0.730817 0.736624 0.742499 0.748443 0.754459 0.760546 0.766706 0.772937 0.779241 0.785616 0.792063 0.79858 0.805168 0.811824 0.818549 0.825342 0.832202 0.839129 0.846121 0.853177 0.860298 0.867482 0.874728 0.882037 0.889407 0.896837 0.904328 0.911878 0.919487 0.927155 0.934881 0.942664 0.950505 0.958402 0.966356 0.974367 0.982433 0.990555 0.998733 1.00697 1.01526 1.0236 1.032 1.04045 1.04896 1.05753 1.06615 1.07483 1.08356 1.09235 1.1012 1.1101 1.11906 1.12808 1.13715 1.14628 1.15547 1.16472 1.17403 1.18339 1.19282 1.2023 1.21185 1.22145 1.23112 1.24085 1.25063 1.26048 1.27039 1.28036 1.29039 1.30048 1.31063 1.32084 1.33111 1.34143 1.35182 1.36225 1.37274 1.38328 1.39386 1.40449 1.41516 1.42586 1.43659 1.44735 1.45811 1.46889 1.47965 1.4904 1.50111 1.51178 
0.693397 0.698672 0.703967 0.709293 0.714657 0.720067 0.725529 0.731047 0.736627 0.742271 0.747982 0.753764 0.759616 0.765541 0.771539 0.777611 0.783756 0.789976 0.796269 0.802635 0.809074 0.815586 0.822169 0.828824 0.83555 0.842345 0.84921 0.856144 0.863145 0.870214 0.87735 0.884552 0.89182 0.899153 0.906551 0.914012 0.921538 0.929126 0.936777 0.94449 0.952266 0.960103 0.968001 0.975961 0.983981 0.992063 1.00021 1.00841 1.01667 1.02499 1.03338 1.04182 1.05033 1.0589 1.06752 1.07621 1.08496 1.09377 1.10265 1.11158 1.12058 1.12964 1.13877 1.14795 1.15721 1.16652 1.1759 1.18535 1.19486 1.20443 1.21408 1.22378 1.23356 1.2434 1.25331 1.26328 1.27332 1.28343 1.2936 1.30384 1.31414 1.32451 1.33494 1.34543 1.35599 1.3666 1.37727 1.38799 1.39876 1.40958 1.42043 1.43133 1.44225 1.4532 1.46416 1.47513 1.48609 1.49703 1.50794 1.51881 
0.700396 0.705519 0.710662 0.715835 0.721045 0.7263 0.731605 0.736966 0.742387 0.747872 0.753425 0.759047 0.764741 0.770508 0.77635 0.782266 0.788259 0.794326 0.80047 0.80669 0.812986 0.819356 0.825802 0.832323 0.838917 0.845586 0.852327 0.859141 0.866027 0.872984 0.880012 0.887111 0.894279 0.901517 0.908824 0.916199 0.923643 0.931154 0.938732 0.946377 0.954089 0.961867 0.969712 0.977622 0.985598 0.99364 1.00175 1.00992 1.01816 1.02646 1.03483 1.04327 1.05177 1.06034 1.06897 1.07767 1.08644 1.09527 1.10417 1.11314 1.12218 1.13128 1.14045 1.1497 1.15901 1.16839 1.17784 1.18737 1.19696 1.20662 1.21636 1.22617 1.23605 1.246 1.25603 1.26612 1.27629 1.28653 1.29684 1.30723 1.31768 1.3282 1.33879 1.34945 1.36017 1.37095 1.38179 1.39269 1.40364 1.41464 1.42568 1.43677 1.44788 1.45902 1.47017 1.48133 1.49248 1.50361 1.51471 1.52577 
0.707328 0.712301 0.717293 0.722315 0.727373 0.732475 0.737627 0.742834 0.7481 0.753431 0.758829 0.764297 0.769837 0.775451 0.78114 0.786906 0.792749 0.79867 0.80467 0.810747 0.816903 0.823137 0.82945 0.83584 0.842307 0.848852 0.855473 0.862171 0.868944 0.875793 0.882716 0.889714 0.896786 0.903932 0.91115 0.918442 0.925806 0.933241 0.940749 0.948328 0.955978 0.963699 0.971491 0.979354 0.987287 0.99529 1.00336 1.01151 1.01972 1.02801 1.03636 1.04479 1.05329 1.06185 1.07049 1.07921 1.08799 1.09684 1.10577 1.11477 1.12385 1.13299 1.14222 1.15151 1.16088 1.17033 1.17985 1.18945 1.19913 1.20888 1.21871 1.22861 1.2386 1.24866 1.2588 1.26901 1.2793 1.28968 1.30012 1.31064 1.32124 1.33191 1.34265 1.35347 1.36435 1.3753 1.38631 1.39738 1.40851 1.41968 1.43091 1.44217 1.45347 1.46479 1.47613 1.48747 1.49881 1.51013 1.52142 1.53266 
0.714193 0.719018 0.723862 0.728735 0.733644 0.738596 0.743597 0.748654 0.753769 0.758949 0.764196 0.769514 0.774904 0.780369 0.785911 0.791531 0.79723 0.803009 0.808868 0.814808 0.820829 0.82693 0.833113 0.839377 0.845721 0.852146 0.85865 0.865235 0.871899 0.878642 0.885464 0.892364 0.899343 0.906398 0.913532 0.920741 0.928028 0.935391 0.94283 0.950344 0.957935 0.9656 0.973341 0.981157 0.989048 0.997014 1.00506 1.01317 1.02136 1.02963 1.03797 1.04639 1.05488 1.06345 1.0721 1.08082 1.08962 1.0985 1.10745 1.11648 1.12559 1.13478 1.14405 1.1534 1.16283 1.17234 1.18193 1.1916 1.20136 1.21119 1.22111 1.23111 1.2412 1.25136 1.26161 1.27195 1.28236 1.29286 1.30343 1.31409 1.32483 1.33564 1.34654 1.3575 1.36854 1.37965 1.39083 1.40206 1.41336 1.42471 1.43611 1.44755 1.45903 1.47053 1.48205 1.49357 1.50509 1.51659 1.52807 1.53949 
0.720991 0.72567 0.730368 0.735095 0.739858 0.744663 0.749518 0.754427 0.759396 0.764429 0.769529 0.774701 0.779946 0.785267 0.790666 0.796144 0.801703 0.807344 0.813068 0.818874 0.824764 0.830737 0.836794 0.842935 0.84916 0.855468 0.86186 0.868336 0.874894 0.881535 0.888258 0.895063 0.901951 0.908919 0.915969 0.9231 0.930312 0.937604 0.944976 0.952429 0.959961 0.967572 0.975264 0.983035 0.990886 0.998816 1.00683 1.01491 1.02308 1.03133 1.03966 1.04807 1.05656 1.06513 1.07378 1.08252 1.09133 1.10023 1.10921 1.11827 1.12742 1.13665 1.14597 1.15537 1.16485 1.17442 1.18408 1.19382 1.20366 1.21357 1.22358 1.23367 1.24386 1.25413 1.26448 1.27493 1.28546 1.29608 1.30678 1.31757 1.32845 1.3394 1.35044 1.36155 1.37274 1.38401 1.39534 1.40674 1.4182 1.42972 1.44129 1.4529 1.46455 1.47623 1.48792 1.49962 1.51132 1.523 1.53465 1.54626 
0.727722 0.732258 0.736813 0.741397 0.746016 0.750678 0.755389 0.760155 0.764981 0.769871 0.774829 0.779859 0.784963 0.790145 0.795405 0.800747 0.80617 0.811678 0.817269 0.822947 0.82871 0.834559 0.840494 0.846517 0.852626 0.858822 0.865105 0.871474 0.877929 0.884471 0.891099 0.897813 0.904612 0.911496 0.918466 0.92552 0.932659 0.939883 0.94719 0.954582 0.962058 0.969618 0.977262 0.984989 0.992801 1.0007 1.00868 1.01674 1.02489 1.03312 1.04143 1.04984 1.05832 1.06689 1.07555 1.0843 1.09313 1.10205 1.11105 1.12014 1.12933 1.1386 1.14796 1.15741 1.16695 1.17658 1.1863 1.19612 1.20602 1.21602 1.22611 1.2363 1.24657 1.25694 1.2674 1.27796 1.2886 1.29934 1.31017 1.32109 1.33209 1.34318 1.35436 1.36562 1.37696 1.38837 1.39986 1.41142 1.42304 1.43472 1.44645 1.45823 1.47005 1.48189 1.49376 1.50563 1.5175 1.52935 1.54118 1.55295 
0.734385 0.73878 0.743196 0.74764 0.752119 0.756642 0.761213 0.76584 0.770526 0.775278 0.780098 0.78499 0.789958 0.795004 0.800131 0.805339 0.810632 0.81601 0.821475 0.827027 0.832668 0.838397 0.844215 0.850123 0.85612 0.862207 0.868384 0.874651 0.881007 0.887453 0.893989 0.900614 0.907328 0.914131 0.921022 0.928003 0.935071 0.942229 0.949474 0.956807 0.964229 0.971738 0.979336 0.987021 0.994795 1.00266 1.01061 1.01864 1.02677 1.03499 1.04329 1.05169 1.06017 1.06874 1.07741 1.08616 1.09501 1.10395 1.11298 1.1221 1.13132 1.14063 1.15003 1.15953 1.16912 1.17881 1.1886 1.19848 1.20846 1.21853 1.22871 1.23898 1.24935 1.25981 1.27038 1.28104 1.29179 1.30264 1.31359 1.32463 1.33576 1.34699 1.3583 1.3697 1.38118 1.39274 1.40438 1.41609 1.42786 1.4397 1.45159 1.46353 1.47551 1.48752 1.49955 1.51159 1.52363 1.53565 1.54764 1.55959 
0.740979 0.745239 0.749518 0.753825 0.758169 0.762555 0.766991 0.771482 0.776033 0.78065 0.785336 0.790096 0.794931 0.799846 0.804843 0.809924 0.81509 0.820344 0.825686 0.831117 0.836639 0.842252 0.847957 0.853754 0.859644 0.865626 0.871701 0.877868 0.884129 0.890483 0.896929 0.903468 0.9101 0.916824 0.92364 0.930549 0.93755 0.944643 0.951828 0.959105 0.966474 0.973935 0.981488 0.989133 0.99687 1.0047 1.01262 1.02064 1.02874 1.03694 1.04524 1.05362 1.0621 1.07068 1.07935 1.08812 1.09698 1.10593 1.11499 1.12414 1.13339 1.14274 1.15218 1.16173 1.17138 1.18112 1.19097 1.20092 1.21097 1.22112 1.23137 1.24173 1.25218 1.26274 1.2734 1.28417 1.29503 1.30599 1.31705 1.32821 1.33947 1.35082 1.36226 1.37379 1.38541 1.39712 1.4089 1.42075 1.43268 1.44467 1.45671 1.46881 1.48094 1.49311 1.5053 1.5175 1.5297 1.54189 1.55404 1.56615 
0.747505 0.751632 0.755778 0.759953 0.764164 0.768418 0.772722 0.777082 0.781503 0.785989 0.790546 0.795176 0.799884 0.804673 0.809544 0.814501 0.819545 0.824679 0.829902 0.835217 0.840625 0.846127 0.851722 0.857412 0.863198 0.869078 0.875055 0.881127 0.887295 0.89356 0.89992 0.906376 0.912929 0.919577 0.926321 0.933161 0.940096 0.947128 0.954255 0.961477 0.968796 0.97621 0.98372 0.991326 0.999028 1.00683 1.01472 1.02271 1.0308 1.03898 1.04727 1.05565 1.06413 1.0727 1.08138 1.09016 1.09903 1.10801 1.11709 1.12627 1.13555 1.14493 1.15442 1.16401 1.17371 1.18351 1.19342 1.20343 1.21354 1.22377 1.2341 1.24454 1.25508 1.26573 1.27648 1.28734 1.29831 1.30938 1.32055 1.33183 1.3432 1.35468 1.36625 1.37791 1.38966 1.4015 1.41342 1.42541 1.43748 1.44962 1.46181 1.47406 1.48635 1.49867 1.51101 1.52337 1.53573 1.54807 1.56039 1.57265 
0.753962 0.75796 0.761977 0.766024 0.770106 0.774232 0.778409 0.782641 0.786935 0.791295 0.795727 0.800233 0.804818 0.809484 0.814235 0.819073 0.823999 0.829016 0.834126 0.839329 0.844627 0.85002 0.855511 0.861098 0.866783 0.872566 0.878448 0.884428 0.890508 0.896686 0.902963 0.90934 0.915816 0.922391 0.929065 0.935839 0.942711 0.949683 0.956754 0.963925 0.971194 0.978564 0.986032 0.993601 1.00127 1.00904 1.01691 1.02487 1.03294 1.04112 1.04939 1.05776 1.06624 1.07482 1.0835 1.09229 1.10118 1.11017 1.11927 1.12848 1.13779 1.14721 1.15674 1.16638 1.17612 1.18598 1.19594 1.20601 1.21619 1.22649 1.23689 1.24741 1.25804 1.26877 1.27962 1.29058 1.30164 1.31281 1.3241 1.33548 1.34697 1.35856 1.37025 1.38204 1.39392 1.40589 1.41794 1.43007 1.44228 1.45456 1.46689 1.47928 1.49172 1.50419 1.51669 1.52919 1.5417 1.5542 1.56666 1.57909 
0.760349 0.764222 0.768115 0.772037 0.775995 0.779997 0.78405 0.788159 0.792331 0.79657 0.80088 0.805267 0.809733 0.814281 0.818916 0.823639 0.828452 0.833357 0.838357 0.843452 0.848645 0.853935 0.859324 0.864812 0.870401 0.87609 0.881881 0.887773 0.893767 0.899862 0.90606 0.91236 0.918763 0.925267 0.931874 0.938584 0.945396 0.952311 0.959328 0.966449 0.973672 0.980998 0.988427 0.995959 1.00359 1.01133 1.01918 1.02713 1.03518 1.04334 1.0516 1.05997 1.06844 1.07702 1.08571 1.09451 1.10341 1.11243 1.12155 1.13078 1.14012 1.14958 1.15915 1.16882 1.17862 1.18852 1.19854 1.20867 1.21892 1.22928 1.23976 1.25035 1.26105 1.27187 1.28281 1.29386 1.30502 1.31629 1.32768 1.33917 1.35077 1.36247 1.37428 1.38619 1.39819 1.41028 1.42247 1.43473 1.44707 1.45948 1.47196 1.48449 1.49706 1.50968 1.52232 1.53497 1.54763 1.56027 1.57288 1.58545 
0.766667 0.770419 0.774191 0.777993 0.781831 0.785713 0.789647 0.793638 0.797691 0.801813 0.806007 0.810278 0.81463 0.819065 0.823588 0.8282 0.832904 0.837703 0.842597 0.847589 0.852679 0.85787 0.863162 0.868555 0.874052 0.879651 0.885354 0.891161 0.897073 0.90309 0.909211 0.915438 0.921769 0.928207 0.934749 0.941398 0.948152 0.955012 0.961978 0.96905 0.976228 0.983513 0.990904 0.998402 1.00601 1.01372 1.02154 1.02947 1.0375 1.04565 1.0539 1.06226 1.07074 1.07932 1.08801 1.09682 1.10574 1.11477 1.12391 1.13317 1.14254 1.15203 1.16164 1.17136 1.18119 1.19115 1.20122 1.21141 1.22171 1.23214 1.24269 1.25335 1.26413 1.27504 1.28605 1.29719 1.30844 1.31981 1.3313 1.34289 1.3546 1.36641 1.37833 1.39035 1.40247 1.41469 1.42699 1.43938 1.45185 1.4644 1.477 1.48967 1.50238 1.51513 1.52791 1.5407 1.5535 1.56628 1.57904 1.59175 
0.772913 0.776549 0.780205 0.783891 0.787613 0.791381 0.795199 0.799076 0.803016 0.807025 0.811107 0.815267 0.819509 0.823836 0.828251 0.832758 0.837357 0.842053 0.846846 0.851739 0.856732 0.861827 0.867026 0.872329 0.877736 0.88325 0.888869 0.894595 0.900428 0.906369 0.912417 0.918573 0.924837 0.93121 0.937691 0.944281 0.95098 0.957787 0.964704 0.97173 0.978865 0.98611 0.993465 1.00093 1.0085 1.01619 1.02399 1.0319 1.03992 1.04805 1.05629 1.06465 1.07312 1.08171 1.09041 1.09922 1.10815 1.1172 1.12637 1.13565 1.14505 1.15457 1.16421 1.17397 1.18385 1.19385 1.20397 1.21422 1.22459 1.23507 1.24569 1.25642 1.26728 1.27826 1.28936 1.30058 1.31192 1.32338 1.33496 1.34665 1.35846 1.37037 1.3824 1.39453 1.40677 1.4191 1.43152 1.44403 1.45663 1.46929 1.48203 1.49482 1.50766 1.52055 1.53346 1.54638 1.55931 1.57223 1.58513 1.59797 
0.779089 0.782613 0.786158 0.789731 0.793343 0.796999 0.800708 0.804475 0.808306 0.812206 0.816181 0.820235 0.824372 0.828594 0.832907 0.837312 0.841812 0.846409 0.851105 0.855903 0.860803 0.865807 0.870917 0.876133 0.881456 0.886886 0.892426 0.898074 0.903832 0.9097 0.915678 0.921767 0.927967 0.934278 0.9407 0.947234 0.95388 0.960637 0.967506 0.974488 0.981583 0.98879 0.99611 1.00354 1.01109 1.01875 1.02653 1.03442 1.04242 1.05054 1.05878 1.06713 1.0756 1.08419 1.0929 1.10172 1.11066 1.11973 1.12891 1.13822 1.14765 1.1572 1.16687 1.17667 1.18659 1.19664 1.20681 1.21711 1.22753 1.23808 1.24875 1.25956 1.27048 1.28154 1.29271 1.30402 1.31544 1.32699 1.33866 1.35044 1.36235 1.37437 1.3865 1.39873 1.41108 1.42352 1.43606 1.44868 1.46139 1.47418 1.48704 1.49995 1.51292 1.52593 1.53896 1.55202 1.56508 1.57813 1.59115 1.60413 
0.785194 0.78861 0.792047 0.795514 0.799019 0.802569 0.806172 0.809834 0.813561 0.817358 0.82123 0.825182 0.829218 0.833341 0.837555 0.841863 0.846267 0.850771 0.855375 0.860082 0.864893 0.869811 0.874835 0.879968 0.88521 0.890562 0.896025 0.901599 0.907286 0.913084 0.918996 0.925021 0.931159 0.937411 0.943777 0.950258 0.956853 0.963562 0.970387 0.977327 0.984382 0.991553 0.998841 1.00624 1.01376 1.0214 1.02916 1.03703 1.04502 1.05313 1.06136 1.06971 1.07818 1.08677 1.09548 1.10431 1.11327 1.12235 1.13155 1.14088 1.15033 1.15991 1.16962 1.17945 1.18942 1.19951 1.20972 1.22007 1.23055 1.24116 1.25189 1.26276 1.27375 1.28487 1.29613 1.30751 1.31901 1.33064 1.3424 1.35428 1.36627 1.37839 1.39061 1.40295 1.4154 1.42795 1.44059 1.45333 1.46615 1.47905 1.49202 1.50506 1.51814 1.53127 1.54443 1.55761 1.57079 1.58397 1.59711 1.61022 
0.791226 0.79454 0.797874 0.801239 0.804642 0.80809 0.811592 0.815154 0.818781 0.822479 0.826253 0.830108 0.834048 0.838076 0.842197 0.846412 0.850725 0.855139 0.859655 0.864276 0.869003 0.873837 0.878781 0.883835 0.889 0.894277 0.899667 0.905171 0.910789 0.916522 0.922371 0.928334 0.934414 0.94061 0.946923 0.953353 0.9599 0.966564 0.973346 0.980246 0.987264 0.994401 1.00166 1.00903 1.01653 1.02414 1.03188 1.03973 1.04771 1.05581 1.06403 1.07238 1.08084 1.08944 1.09815 1.10699 1.11596 1.12506 1.13428 1.14363 1.15311 1.16272 1.17246 1.18232 1.19232 1.20246 1.21272 1.22311 1.23364 1.2443 1.2551 1.26602 1.27708 1.28827 1.2996 1.31105 1.32263 1.33434 1.34618 1.35814 1.37023 1.38243 1.39475 1.40719 1.41973 1.43238 1.44513 1.45797 1.4709 1.48391 1.49699 1.51014 1.52334 1.53658 1.54986 1.56315 1.57645 1.58974 1.60301 1.61623 
0.797186 0.800401 0.803638 0.806905 0.810211 0.813563 0.816968 0.820434 0.823966 0.82757 0.831251 0.835013 0.838862 0.8428 0.846831 0.850959 0.855186 0.859514 0.863947 0.868486 0.873132 0.877888 0.882755 0.887734 0.892826 0.898032 0.903353 0.908791 0.914344 0.920015 0.925803 0.931709 0.937733 0.943876 0.950138 0.95652 0.963021 0.969642 0.976384 0.983246 0.99023 0.997334 1.00456 1.01191 1.01938 1.02697 1.03469 1.04253 1.05049 1.05858 1.0668 1.07514 1.08361 1.0922 1.10092 1.10977 1.11875 1.12786 1.1371 1.14647 1.15598 1.16561 1.17538 1.18528 1.19532 1.20549 1.21579 1.22623 1.23681 1.24752 1.25837 1.26936 1.28048 1.29173 1.30312 1.31464 1.3263 1.33809 1.35 1.36205 1.37421 1.38651 1.39892 1.41144 1.42408 1.43682 1.44967 1.46261 1.47564 1.48875 1.50194 1.51519 1.5285 1.54185 1.55524 1.56865 1.58206 1.59546 1.60884 1.62218 
0.803073 0.806195 0.809339 0.812513 0.815726 0.818986 0.8223 0.825675 0.829117 0.832631 0.836224 0.839899 0.84366 0.847513 0.85146 0.855504 0.859649 0.863897 0.86825 0.872711 0.877282 0.881963 0.886757 0.891665 0.896688 0.901828 0.907084 0.912458 0.91795 0.923561 0.929292 0.935144 0.941116 0.947209 0.953423 0.959759 0.966217 0.972798 0.979502 0.986328 0.993278 1.00035 1.00755 1.01487 1.02232 1.02989 1.03759 1.04542 1.05337 1.06145 1.06966 1.078 1.08647 1.09506 1.10379 1.11265 1.12164 1.13076 1.14002 1.14941 1.15893 1.16859 1.17839 1.18832 1.19839 1.2086 1.21895 1.22943 1.24005 1.25082 1.26172 1.27276 1.28393 1.29525 1.3067 1.31829 1.33002 1.34187 1.35386 1.36598 1.37823 1.39061 1.4031 1.41571 1.42844 1.44127 1.45421 1.46725 1.48037 1.49358 1.50687 1.52022 1.53363 1.54709 1.56058 1.57409 1.58761 1.60112 1.61461 1.62805 