# vtk DataFile Version 3.0
cell
ASCII
DATASET STRUCTURED_POINTS
DIMENSIONS 100 100 1
ORIGIN 0 0 0
SPACING 0.010000 0.010000 1
POINT_DATA 10000
SCALARS sample_scalars double
LOOKUP_TABLE default
0.557656 0.563957 0.572164 0.581135 0.590458 0.599965 0.609575 0.619249 0.628961 0.638698 0.648449 0.658209 0.667971 0.677732 0.687489 0.69724 0.706981 0.716712 0.726431 0.736136 0.745825 0.755498 0.765153 0.774788 0.784403 0.793997 0.803567 0.813115 0.822637 0.832134 0.841604 0.851046 0.860459 0.869842 0.879195 0.888516 0.897804 0.907058 0.916278 0.925463 0.934611 0.943721 0.952794 0.961827 0.97082 0.979772 0.988683 0.99755 1.00637 1.01515 1.02389 1.03258 1.04122 1.04981 1.05835 1.06685 1.07529 1.08369 1.09203 1.10031 1.10855 1.11673 1.12485 1.13292 1.14093 1.14889 1.15678 1.16462 1.1724 1.18011 1.18777 1.19536 1.20289 1.21036 1.21777 1.22511 1.23238 1.23959 1.24673 1.25381 1.26082 1.26776 1.27463 1.28144 1.28817 1.29484 1.30144 1.30798 1.31444 1.32085 1.32719 1.33347 1.3397 1.34588 1.35204 1.3582 1.36443 1.37084 1.37775 1.38601 
0.56945 0.575751 0.583405 0.591859 0.600779 0.609979 0.619354 0.628843 0.638408 0.648024 0.657676 0.667351 0.677041 0.686741 0.696444 0.706147 0.715847 0.725541 0.735226 0.744901 0.754563 0.764211 0.773843 0.783458 0.793054 0.80263 0.812185 0.821717 0.831226 0.84071 0.850168 0.859599 0.869003 0.878377 0.887721 0.897033 0.906314 0.915562 0.924776 0.933954 0.943097 0.952203 0.961271 0.9703 0.979289 0.988238 0.997146 1.00601 1.01483 1.02361 1.03234 1.04103 1.04967 1.05826 1.06681 1.0753 1.08375 1.09214 1.10048 1.10877 1.11701 1.12519 1.13332 1.14139 1.14941 1.15737 1.16527 1.17311 1.18089 1.18862 1.19628 1.20388 1.21142 1.2189 1.22632 1.23367 1.24095 1.24818 1.25534 1.26243 1.26946 1.27642 1.28332 1.29015 1.29692 1.30362 1.31026 1.31684 1.32336 1.32983 1.33624 1.34261 1.34895 1.35528 1.36161 1.368 1.37453 1.38133 1.38865 1.39691 
0.579283 0.586135 0.593789 0.602059 0.610761 0.619758 0.628959 0.6383 0.64774 0.657251 0.666814 0.676412 0.686036 0.695677 0.70533 0.714988 0.724648 0.734306 0.743959 0.753604 0.76324 0.772864 0.782474 0.792069 0.801646 0.811205 0.820745 0.830262 0.839758 0.849229 0.858676 0.868096 0.87749 0.886854 0.89619 0.905495 0.914768 0.924009 0.933216 0.942389 0.951527 0.960628 0.969691 0.978716 0.987702 0.996648 1.00555 1.01442 1.02324 1.03201 1.04074 1.04943 1.05807 1.06666 1.0752 1.0837 1.09215 1.10054 1.10888 1.11718 1.12542 1.1336 1.14173 1.14981 1.15783 1.16579 1.1737 1.18154 1.18933 1.19706 1.20474 1.21235 1.21989 1.22738 1.23481 1.24217 1.24947 1.25671 1.26388 1.27099 1.27804 1.28502 1.29194 1.2988 1.3056 1.31234 1.31901 1.32564 1.3322 1.33873 1.34521 1.35166 1.35809 1.36452 1.37099 1.37753 1.38422 1.39116 1.39848 1.40633 
0.588293 0.595662 0.603498 0.611768 0.620387 0.629274 0.63836 0.647594 0.656938 0.666363 0.675849 0.685381 0.694946 0.704535 0.71414 0.723757 0.733379 0.743003 0.752626 0.762243 0.771854 0.781454 0.791043 0.800618 0.810178 0.819721 0.829244 0.838748 0.84823 0.85769 0.867125 0.876535 0.885918 0.895274 0.904601 0.913898 0.923164 0.932399 0.9416 0.950767 0.959899 0.968995 0.978054 0.987076 0.996058 1.005 1.0139 1.02276 1.03158 1.04035 1.04908 1.05777 1.06641 1.075 1.08354 1.09204 1.10049 1.10888 1.11723 1.12552 1.13376 1.14195 1.15009 1.15816 1.16619 1.17416 1.18207 1.18992 1.19772 1.20545 1.21313 1.22075 1.22831 1.2358 1.24324 1.25061 1.25793 1.26518 1.27237 1.27949 1.28656 1.29356 1.3005 1.30739 1.31421 1.32098 1.32769 1.33435 1.34096 1.34754 1.35407 1.36059 1.36709 1.3736 1.38015 1.38678 1.39353 1.40047 1.40765 1.41511 
0.596892 0.604662 0.612715 0.621066 0.629685 0.638528 0.647551 0.656715 0.665989 0.675348 0.684773 0.694249 0.703763 0.713306 0.72287 0.732448 0.742036 0.751629 0.761223 0.770814 0.780401 0.78998 0.799548 0.809105 0.818647 0.828174 0.837683 0.847173 0.856642 0.86609 0.875514 0.884914 0.894288 0.903634 0.912953 0.922243 0.931502 0.940729 0.949924 0.959086 0.968213 0.977304 0.986359 0.995377 1.00436 1.01329 1.02219 1.03105 1.03987 1.04864 1.05737 1.06605 1.07469 1.08328 1.09183 1.10032 1.10877 1.11717 1.12551 1.13381 1.14205 1.15024 1.15838 1.16646 1.17449 1.18246 1.19038 1.19824 1.20604 1.21378 1.22147 1.22909 1.23666 1.24417 1.25161 1.259 1.26632 1.27358 1.28079 1.28793 1.29501 1.30203 1.309 1.3159 1.32275 1.32955 1.33629 1.34298 1.34963 1.35625 1.36283 1.36939 1.37595 1.38251 1.38911 1.39577 1.40252 1.40939 1.41641 1.42357 
0.605245 0.613321 0.621576 0.630036 0.638698 0.64754 0.656537 0.665661 0.674889 0.684201 0.693579 0.70301 0.712482 0.721985 0.731513 0.741058 0.750615 0.76018 0.769747 0.779315 0.788879 0.798437 0.807987 0.817525 0.827051 0.836563 0.846058 0.855534 0.864992 0.874428 0.883841 0.893231 0.902596 0.911934 0.921245 0.930527 0.939779 0.949 0.958189 0.967345 0.976467 0.985554 0.994605 1.00362 1.01259 1.02153 1.03043 1.03928 1.0481 1.05687 1.06559 1.07428 1.08291 1.09151 1.10005 1.10855 1.11699 1.12539 1.13374 1.14204 1.15028 1.15848 1.16662 1.1747 1.18273 1.19071 1.19863 1.20649 1.2143 1.22205 1.22974 1.23738 1.24495 1.25246 1.25992 1.26732 1.27465 1.28193 1.28914 1.2963 1.3034 1.31044 1.31742 1.32435 1.33122 1.33804 1.34481 1.35153 1.35821 1.36485 1.37147 1.37807 1.38466 1.39125 1.39787 1.40453 1.41125 1.41804 1.4249 1.43183 
0.613431 0.621741 0.63017 0.638743 0.647467 0.656335 0.665331 0.674438 0.68364 0.69292 0.702264 0.711661 0.721099 0.73057 0.740067 0.749583 0.759113 0.768653 0.778197 0.787742 0.797286 0.806825 0.816356 0.825878 0.835389 0.844886 0.854367 0.863832 0.873277 0.882702 0.892105 0.901486 0.910841 0.920171 0.929474 0.938749 0.947994 0.957209 0.966393 0.975543 0.98466 0.993743 1.00279 1.0118 1.02077 1.0297 1.0386 1.04745 1.05626 1.06503 1.07376 1.08244 1.09108 1.09967 1.10821 1.11671 1.12516 1.13356 1.14191 1.15021 1.15845 1.16665 1.17479 1.18288 1.19092 1.1989 1.20682 1.21469 1.2225 1.23026 1.23796 1.2456 1.25318 1.2607 1.26816 1.27557 1.28292 1.2902 1.29743 1.3046 1.31172 1.31877 1.32577 1.33271 1.3396 1.34644 1.35324 1.35998 1.36669 1.37336 1.38 1.38662 1.39323 1.39983 1.40645 1.41309 1.41976 1.42646 1.4332 1.43995 
0.62149 0.629983 0.638558 0.647237 0.65603 0.664936 0.673948 0.683055 0.692245 0.701507 0.710828 0.7202 0.729612 0.739058 0.748529 0.758021 0.767528 0.777045 0.786568 0.796093 0.805618 0.81514 0.824655 0.834162 0.843658 0.853141 0.86261 0.872063 0.881497 0.890911 0.900305 0.909676 0.919023 0.928345 0.937641 0.946908 0.956147 0.965356 0.974534 0.98368 0.992792 1.00187 1.01091 1.01992 1.02889 1.03782 1.04671 1.05556 1.06437 1.07314 1.08186 1.09054 1.09918 1.10777 1.11631 1.12481 1.13326 1.14166 1.15001 1.15831 1.16656 1.17476 1.1829 1.191 1.19904 1.20702 1.21495 1.22282 1.23064 1.2384 1.2461 1.25375 1.26134 1.26887 1.27634 1.28376 1.29111 1.29841 1.30565 1.31284 1.31996 1.32703 1.33404 1.341 1.34791 1.35477 1.36158 1.36834 1.37507 1.38175 1.38841 1.39504 1.40166 1.40827 1.41487 1.42148 1.4281 1.43472 1.44135 1.44795 
0.629442 0.638082 0.64678 0.655555 0.664417 0.673367 0.682404 0.691522 0.700711 0.709965 0.719273 0.728627 0.738021 0.747447 0.756898 0.76637 0.775857 0.785355 0.794859 0.804367 0.813876 0.823381 0.832882 0.842374 0.851857 0.861328 0.870785 0.880226 0.88965 0.899055 0.908439 0.917801 0.92714 0.936454 0.945743 0.955004 0.964236 0.97344 0.982612 0.991752 1.00086 1.00993 1.01897 1.02797 1.03694 1.04587 1.05476 1.06361 1.07241 1.08118 1.0899 1.09858 1.10722 1.11581 1.12435 1.13285 1.1413 1.1497 1.15805 1.16636 1.17461 1.18281 1.19095 1.19905 1.20709 1.21508 1.22301 1.23089 1.23871 1.24648 1.25419 1.26184 1.26944 1.27698 1.28446 1.29188 1.29924 1.30655 1.3138 1.321 1.32813 1.33521 1.34224 1.34921 1.35613 1.36301 1.36983 1.37661 1.38335 1.39005 1.39671 1.40335 1.40997 1.41656 1.42315 1.42972 1.43629 1.44284 1.44937 1.45587 
0.637301 0.64606 0.654863 0.663723 0.672649 0.681646 0.690714 0.699849 0.709046 0.718298 0.7276 0.736945 0.746326 0.755737 0.765172 0.774628 0.784099 0.79358 0.803069 0.812562 0.822056 0.831547 0.841034 0.850514 0.859985 0.869444 0.87889 0.888321 0.897734 0.90713 0.916505 0.92586 0.935191 0.944498 0.953779 0.963034 0.972261 0.981458 0.990625 0.999761 1.00886 1.01793 1.02697 1.03597 1.04493 1.05385 1.06274 1.07159 1.08039 1.08916 1.09788 1.10656 1.11519 1.12378 1.13233 1.14083 1.14928 1.15768 1.16603 1.17433 1.18259 1.19079 1.19894 1.20704 1.21508 1.22307 1.23101 1.23889 1.24672 1.25449 1.26221 1.26987 1.27747 1.28501 1.2925 1.29993 1.3073 1.31462 1.32188 1.32908 1.33623 1.34332 1.35036 1.35734 1.36428 1.37116 1.37799 1.38478 1.39153 1.39823 1.40491 1.41154 1.41815 1.42474 1.4313 1.43783 1.44435 1.45084 1.45729 1.4637 
0.645076 0.653934 0.662824 0.671759 0.680745 0.689789 0.698889 0.708046 0.717255 0.726513 0.735814 0.745154 0.754527 0.763928 0.773352 0.782795 0.792253 0.801721 0.811197 0.820677 0.830158 0.839637 0.849112 0.85858 0.868039 0.877488 0.886924 0.896345 0.90575 0.915136 0.924504 0.93385 0.943174 0.952474 0.961749 0.970998 0.980219 0.989411 0.998573 1.0077 1.0168 1.02587 1.0349 1.0439 1.05286 1.06178 1.07066 1.07951 1.08831 1.09707 1.10579 1.11447 1.12311 1.1317 1.14024 1.14874 1.15719 1.16559 1.17395 1.18225 1.1905 1.19871 1.20686 1.21496 1.22301 1.231 1.23894 1.24683 1.25466 1.26244 1.27016 1.27782 1.28543 1.29298 1.30047 1.30791 1.31529 1.32262 1.32988 1.3371 1.34425 1.35135 1.3584 1.36539 1.37233 1.37922 1.38607 1.39286 1.39961 1.40632 1.41299 1.41963 1.42623 1.43279 1.43933 1.44583 1.4523 1.45873 1.46512 1.47144 
0.65277 0.661711 0.670677 0.679678 0.688719 0.697806 0.70694 0.71612 0.725346 0.734613 0.743918 0.753257 0.762626 0.772021 0.781437 0.790871 0.800319 0.809776 0.819241 0.82871 0.83818 0.847648 0.857112 0.86657 0.87602 0.885459 0.894885 0.904298 0.913694 0.923073 0.932433 0.941772 0.951089 0.960382 0.969651 0.978894 0.98811 0.997297 1.00645 1.01558 1.02468 1.03374 1.04277 1.05176 1.06071 1.06963 1.07852 1.08736 1.09616 1.10492 1.11364 1.12232 1.13095 1.13954 1.14809 1.15658 1.16503 1.17344 1.18179 1.1901 1.19836 1.20656 1.21472 1.22282 1.23087 1.23887 1.24681 1.2547 1.26253 1.27032 1.27804 1.28571 1.29332 1.30088 1.30838 1.31582 1.32321 1.33054 1.33781 1.34503 1.3522 1.3593 1.36636 1.37336 1.38031 1.3872 1.39405 1.40085 1.4076 1.41431 1.42098 1.4276 1.43419 1.44074 1.44725 1.45372 1.46014 1.46652 1.47285 1.47912 
0.660388 0.6694 0.678431 0.68749 0.696581 0.705709 0.714875 0.724081 0.733324 0.742603 0.751915 0.761257 0.770626 0.780018 0.789429 0.798856 0.808296 0.817745 0.827201 0.836661 0.846122 0.855581 0.865036 0.874484 0.883925 0.893355 0.902774 0.912178 0.921567 0.930938 0.940291 0.949623 0.958934 0.968221 0.977484 0.986722 0.995932 1.00511 1.01427 1.02339 1.03248 1.04154 1.05056 1.05955 1.06851 1.07742 1.0863 1.09514 1.10394 1.1127 1.12142 1.1301 1.13873 1.14732 1.15586 1.16436 1.17281 1.18122 1.18957 1.19788 1.20614 1.21435 1.2225 1.23061 1.23866 1.24666 1.25461 1.2625 1.27034 1.27812 1.28585 1.29353 1.30114 1.30871 1.31621 1.32366 1.33105 1.33839 1.34567 1.35289 1.36006 1.36718 1.37424 1.38124 1.38819 1.3951 1.40195 1.40875 1.4155 1.42221 1.42887 1.43548 1.44205 1.44858 1.45507 1.4615 1.46789 1.47423 1.48051 1.48672 
0.667931 0.677004 0.686092 0.695202 0.704339 0.713505 0.722703 0.731933 0.741195 0.750488 0.759809 0.769156 0.778527 0.787918 0.797327 0.80675 0.816185 0.825628 0.835077 0.844529 0.853982 0.863433 0.87288 0.882321 0.891754 0.901177 0.910588 0.919985 0.929367 0.938731 0.948077 0.957404 0.966708 0.97599 0.985248 0.99448 1.00369 1.01286 1.02201 1.03113 1.04022 1.04927 1.05829 1.06728 1.07623 1.08515 1.09402 1.10286 1.11166 1.12042 1.12914 1.13781 1.14644 1.15503 1.16358 1.17208 1.18053 1.18893 1.19729 1.2056 1.21386 1.22206 1.23022 1.23833 1.24639 1.25439 1.26234 1.27023 1.27808 1.28586 1.2936 1.30127 1.30889 1.31646 1.32397 1.33142 1.33882 1.34616 1.35345 1.36068 1.36785 1.37497 1.38203 1.38904 1.396 1.4029 1.40975 1.41655 1.42331 1.43001 1.43666 1.44326 1.44982 1.45633 1.46279 1.4692 1.47555 1.48185 1.48808 1.49425 
0.675401 0.684527 0.693665 0.702821 0.711998 0.7212 0.730427 0.739682 0.748963 0.758271 0.767603 0.776957 0.786332 0.795725 0.805133 0.814554 0.823986 0.833424 0.842868 0.852315 0.861761 0.871206 0.880646 0.890081 0.899507 0.908923 0.918327 0.927717 0.937093 0.946451 0.955791 0.965112 0.974411 0.983688 0.992941 1.00217 1.01137 1.02054 1.02969 1.0388 1.04789 1.05694 1.06596 1.07494 1.08389 1.0928 1.10168 1.11051 1.11931 1.12807 1.13678 1.14546 1.15409 1.16268 1.17122 1.17972 1.18817 1.19658 1.20493 1.21324 1.2215 1.22971 1.23787 1.24598 1.25404 1.26204 1.27 1.2779 1.28574 1.29353 1.30127 1.30895 1.31657 1.32414 1.33166 1.33911 1.34652 1.35386 1.36115 1.36838 1.37556 1.38268 1.38975 1.39676 1.40372 1.41062 1.41748 1.42427 1.43102 1.43772 1.44436 1.45095 1.45749 1.46398 1.47042 1.4768 1.48312 1.48938 1.49558 1.5017 
0.682799 0.691971 0.701154 0.71035 0.719564 0.728798 0.738054 0.747332 0.756633 0.765955 0.775299 0.784662 0.794043 0.803439 0.812848 0.822269 0.831699 0.841134 0.850575 0.860016 0.869458 0.878897 0.888332 0.897761 0.907181 0.916591 0.92599 0.935374 0.944744 0.954097 0.963432 0.972747 0.982041 0.991313 1.00056 1.00978 1.01898 1.02815 1.03729 1.0464 1.05548 1.06453 1.07355 1.08253 1.09148 1.10039 1.10926 1.11809 1.12689 1.13565 1.14436 1.15303 1.16167 1.17025 1.1788 1.18729 1.19575 1.20415 1.21251 1.22082 1.22908 1.23729 1.24545 1.25356 1.26162 1.26963 1.27759 1.28549 1.29333 1.30113 1.30887 1.31655 1.32418 1.33175 1.33927 1.34673 1.35413 1.36148 1.36878 1.37601 1.38319 1.39032 1.39739 1.4044 1.41136 1.41826 1.42511 1.43191 1.43865 1.44533 1.45197 1.45855 1.46508 1.47155 1.47796 1.48432 1.49061 1.49684 1.503 1.50909 
0.690125 0.699339 0.70856 0.717793 0.727041 0.736305 0.745587 0.754887 0.764206 0.773545 0.7829 0.792273 0.80166 0.811061 0.820473 0.829895 0.839324 0.848758 0.858196 0.867635 0.877073 0.886508 0.895938 0.905362 0.914777 0.924182 0.933576 0.942955 0.95232 0.961668 0.970998 0.980309 0.989598 0.998866 1.00811 1.01733 1.02652 1.03569 1.04483 1.05393 1.06301 1.07206 1.08107 1.09005 1.09899 1.1079 1.11677 1.1256 1.1344 1.14315 1.15187 1.16054 1.16917 1.17776 1.1863 1.1948 1.20325 1.21166 1.22002 1.22833 1.23659 1.2448 1.25296 1.26108 1.26914 1.27715 1.2851 1.29301 1.30086 1.30865 1.31639 1.32408 1.33171 1.33929 1.34681 1.35427 1.36168 1.36903 1.37632 1.38356 1.39074 1.39787 1.40494 1.41195 1.41891 1.42581 1.43266 1.43945 1.44619 1.45287 1.45949 1.46606 1.47257 1.47902 1.48542 1.49175 1.49802 1.50422 1.51035 1.51641 
0.69738 0.70663 0.715886 0.725152 0.73443 0.743722 0.753028 0.76235 0.771688 0.781041 0.790409 0.799791 0.809186 0.818593 0.828009 0.837432 0.846862 0.856296 0.865733 0.87517 0.884605 0.894037 0.903463 0.912883 0.922295 0.931695 0.941084 0.95046 0.95982 0.969164 0.978489 0.987796 0.997081 1.00634 1.01558 1.0248 1.03399 1.04315 1.05229 1.06139 1.07047 1.07951 1.08852 1.0975 1.10644 1.11534 1.12421 1.13304 1.14184 1.15059 1.1593 1.16798 1.17661 1.18519 1.19374 1.20223 1.21069 1.21909 1.22745 1.23576 1.24403 1.25224 1.2604 1.26852 1.27658 1.28459 1.29255 1.30045 1.3083 1.3161 1.32384 1.33153 1.33917 1.34674 1.35427 1.36173 1.36914 1.3765 1.38379 1.39103 1.39822 1.40534 1.41241 1.41943 1.42638 1.43328 1.44012 1.44691 1.45364 1.46031 1.46693 1.47348 1.47998 1.48641 1.49279 1.4991 1.50534 1.51152 1.51762 1.52365 
0.704564 0.713846 0.723134 0.732429 0.741735 0.751052 0.760381 0.769723 0.779078 0.788446 0.797827 0.80722 0.816623 0.826035 0.835456 0.844882 0.854314 0.863749 0.873185 0.882621 0.892054 0.901484 0.910908 0.920324 0.929732 0.93913 0.948515 0.957886 0.967243 0.976583 0.985905 0.995207 1.00449 1.01375 1.02299 1.0322 1.04138 1.05054 1.05967 1.06878 1.07785 1.08689 1.0959 1.10487 1.11381 1.12271 1.13158 1.14041 1.1492 1.15796 1.16667 1.17534 1.18397 1.19256 1.2011 1.2096 1.21805 1.22645 1.23481 1.24313 1.25139 1.2596 1.26777 1.27588 1.28395 1.29196 1.29992 1.30782 1.31568 1.32348 1.33122 1.33891 1.34655 1.35413 1.36165 1.36912 1.37653 1.38389 1.39118 1.39843 1.40561 1.41274 1.4198 1.42682 1.43377 1.44067 1.44751 1.45429 1.46101 1.46767 1.47428 1.48082 1.4873 1.49372 1.50008 1.50637 1.51259 1.51875 1.52483 1.53083 
0.711675 0.720987 0.730303 0.739626 0.748957 0.758297 0.767647 0.777008 0.78638 0.795763 0.805156 0.814559 0.82397 0.833389 0.842815 0.852246 0.86168 0.871116 0.880553 0.889988 0.89942 0.908849 0.918271 0.927685 0.93709 0.946485 0.955867 0.965235 0.974588 0.983925 0.993243 1.00254 1.01182 1.02108 1.03031 1.03952 1.0487 1.05786 1.06699 1.07609 1.08516 1.09419 1.1032 1.11217 1.12111 1.13001 1.13888 1.14771 1.1565 1.16525 1.17396 1.18263 1.19126 1.19985 1.20839 1.21689 1.22534 1.23374 1.2421 1.25042 1.25868 1.2669 1.27506 1.28318 1.29124 1.29925 1.30721 1.31512 1.32298 1.33078 1.33853 1.34622 1.35385 1.36144 1.36896 1.37643 1.38384 1.3912 1.3985 1.40574 1.41292 1.42005 1.42712 1.43412 1.44108 1.44797 1.4548 1.46158 1.46829 1.47495 1.48154 1.48807 1.49454 1.50095 1.50729 1.51356 1.51976 1.5259 1.53195 1.53794 
0.718715 0.728053 0.737395 0.746742 0.756096 0.765458 0.774828 0.784207 0.793595 0.802992 0.812397 0.82181 0.83123 0.840656 0.850088 0.859522 0.86896 0.878398 0.887836 0.897272 0.906704 0.916131 0.925552 0.934965 0.944368 0.95376 0.963139 0.972505 0.981855 0.991189 1.0005 1.0098 1.01908 1.02833 1.03756 1.04677 1.05595 1.0651 1.07423 1.08332 1.09239 1.10143 1.11043 1.1194 1.12834 1.13724 1.1461 1.15493 1.16372 1.17247 1.18118 1.18985 1.19848 1.20706 1.21561 1.2241 1.23256 1.24096 1.24932 1.25763 1.2659 1.27411 1.28228 1.2904 1.29846 1.30648 1.31444 1.32235 1.3302 1.338 1.34575 1.35345 1.36108 1.36867 1.37619 1.38366 1.39108 1.39843 1.40573 1.41297 1.42015 1.42728 1.43434 1.44135 1.4483 1.45519 1.46202 1.46879 1.47549 1.48214 1.48872 1.49524 1.5017 1.50809 1.51442 1.52067 1.52686 1.53297 1.53901 1.54497 
0.725683 0.735045 0.74441 0.75378 0.763155 0.772537 0.781925 0.791321 0.800724 0.810134 0.819551 0.828974 0.838403 0.847837 0.857274 0.866713 0.876154 0.885595 0.895035 0.904472 0.913904 0.923331 0.932751 0.942163 0.951564 0.960955 0.970332 0.979696 0.989044 0.998375 1.00769 1.01698 1.02625 1.03551 1.04473 1.05394 1.06312 1.07227 1.08139 1.09049 1.09955 1.10858 1.11759 1.12656 1.13549 1.14439 1.15325 1.16208 1.17087 1.17962 1.18833 1.19699 1.20562 1.21421 1.22275 1.23125 1.2397 1.2481 1.25646 1.26478 1.27304 1.28126 1.28942 1.29754 1.30561 1.31362 1.32158 1.32949 1.33735 1.34515 1.3529 1.3606 1.36824 1.37582 1.38335 1.39082 1.39823 1.40559 1.41288 1.42012 1.42731 1.43443 1.44149 1.4485 1.45544 1.46233 1.46915 1.47591 1.48261 1.48925 1.49582 1.50233 1.50878 1.51516 1.52147 1.52771 1.53387 1.53997 1.54599 1.55193 
0.732579 0.741962 0.751349 0.760739 0.770134 0.779534 0.78894 0.798351 0.807768 0.817191 0.82662 0.836053 0.84549 0.854931 0.864374 0.873819 0.883264 0.892708 0.90215 0.911588 0.921021 0.930449 0.939869 0.94928 0.95868 0.968069 0.977445 0.986807 0.996153 1.00548 1.01479 1.02408 1.03336 1.0426 1.05183 1.06103 1.07021 1.07936 1.08848 1.09757 1.10663 1.11567 1.12467 1.13363 1.14257 1.15146 1.16033 1.16915 1.17794 1.18669 1.1954 1.20406 1.21269 1.22128 1.22982 1.23831 1.24677 1.25517 1.26353 1.27184 1.28011 1.28833 1.29649 1.30461 1.31268 1.32069 1.32866 1.33657 1.34442 1.35223 1.35998 1.36767 1.37531 1.38289 1.39042 1.39789 1.4053 1.41266 1.41996 1.4272 1.43438 1.4415 1.44856 1.45556 1.4625 1.46938 1.4762 1.48296 1.48965 1.49628 1.50284 1.50934 1.51578 1.52214 1.52844 1.53466 1.54082 1.54689 1.5529 1.55882 
0.739401 0.748805 0.758211 0.76762 0.777033 0.78645 0.795872 0.805298 0.814729 0.824164 0.833603 0.843046 0.852492 0.86194 0.87139 0.880839 0.890289 0.899736 0.90918 0.918621 0.928055 0.937484 0.946904 0.956314 0.965714 0.975103 0.984478 0.993838 1.00318 1.01251 1.02182 1.03111 1.04038 1.04962 1.05885 1.06805 1.07722 1.08637 1.09549 1.10458 1.11364 1.12267 1.13167 1.14064 1.14957 1.15846 1.16733 1.17615 1.18494 1.19368 1.20239 1.21106 1.21968 1.22827 1.23681 1.24531 1.25376 1.26216 1.27052 1.27884 1.2871 1.29532 1.30349 1.3116 1.31967 1.32769 1.33565 1.34356 1.35142 1.35922 1.36697 1.37467 1.38231 1.38989 1.39742 1.40489 1.4123 1.41966 1.42695 1.43419 1.44137 1.44849 1.45555 1.46254 1.46948 1.47636 1.48317 1.48992 1.4966 1.50323 1.50978 1.51627 1.52269 1.52905 1.53533 1.54154 1.54768 1.55374 1.55973 1.56564 
0.746151 0.755573 0.764997 0.774423 0.783853 0.793286 0.802722 0.812162 0.821606 0.831053 0.840502 0.849955 0.859409 0.868864 0.87832 0.887775 0.897229 0.90668 0.916127 0.92557 0.935006 0.944435 0.953856 0.963267 0.972667 0.982055 0.991429 1.00079 1.01013 1.01946 1.02877 1.03805 1.04732 1.05657 1.06579 1.07499 1.08416 1.0933 1.10242 1.11151 1.12057 1.1296 1.1386 1.14756 1.15649 1.16539 1.17425 1.18307 1.19186 1.2006 1.20931 1.21798 1.2266 1.23518 1.24372 1.25222 1.26067 1.26908 1.27744 1.28575 1.29402 1.30223 1.3104 1.31852 1.32659 1.3346 1.34257 1.35048 1.35834 1.36614 1.37389 1.38159 1.38922 1.39681 1.40433 1.4118 1.41922 1.42657 1.43387 1.4411 1.44828 1.45539 1.46245 1.46944 1.47638 1.48325 1.49005 1.4968 1.50348 1.51009 1.51664 1.52312 1.52953 1.53587 1.54214 1.54834 1.55447 1.56052 1.56649 1.57239 
0.752826 0.762265 0.771705 0.781148 0.790593 0.800041 0.809491 0.818944 0.8284 0.837858 0.847318 0.856779 0.866241 0.875704 0.885166 0.894626 0.904085 0.91354 0.92299 0.932435 0.941873 0.951304 0.960726 0.970137 0.979537 0.988925 0.998299 1.00766 1.017 1.02633 1.03563 1.04492 1.05418 1.06343 1.07265 1.08185 1.09102 1.10016 1.10928 1.11837 1.12742 1.13645 1.14545 1.15441 1.16334 1.17223 1.18109 1.18991 1.1987 1.20744 1.21615 1.22482 1.23344 1.24202 1.25056 1.25906 1.26751 1.27592 1.28428 1.29259 1.30086 1.30907 1.31724 1.32536 1.33343 1.34144 1.34941 1.35732 1.36517 1.37298 1.38073 1.38842 1.39606 1.40365 1.41117 1.41864 1.42605 1.4334 1.4407 1.44793 1.45511 1.46222 1.46927 1.47626 1.48319 1.49006 1.49686 1.5036 1.51027 1.51688 1.52341 1.52989 1.53629 1.54262 1.54888 1.55507 1.56118 1.56722 1.57318 1.57906 
0.759428 0.768882 0.778338 0.787795 0.797254 0.806716 0.816179 0.825644 0.835111 0.84458 0.854049 0.863519 0.87299 0.882459 0.891927 0.901393 0.910856 0.920315 0.929769 0.939217 0.948657 0.95809 0.967513 0.976925 0.986326 0.995713 1.00509 1.01445 1.02379 1.03311 1.04242 1.0517 1.06097 1.07021 1.07943 1.08863 1.0978 1.10694 1.11605 1.12514 1.1342 1.14322 1.15222 1.16118 1.17011 1.179 1.18786 1.19668 1.20546 1.21421 1.22291 1.23158 1.2402 1.24879 1.25733 1.26582 1.27427 1.28268 1.29104 1.29935 1.30762 1.31583 1.324 1.33212 1.34019 1.3482 1.35617 1.36408 1.37193 1.37974 1.38749 1.39518 1.40282 1.4104 1.41793 1.4254 1.43281 1.44016 1.44745 1.45468 1.46185 1.46897 1.47601 1.483 1.48993 1.49679 1.50358 1.51031 1.51698 1.52358 1.53011 1.53657 1.54296 1.54929 1.55554 1.56171 1.56781 1.57384 1.57979 1.58566 
0.765954 0.775423 0.784893 0.794364 0.803836 0.81331 0.822786 0.832263 0.84174 0.851219 0.860697 0.870176 0.879654 0.88913 0.898605 0.908076 0.917544 0.927007 0.936464 0.945915 0.955357 0.964792 0.974216 0.98363 0.993031 1.00242 1.01179 1.02115 1.03049 1.03982 1.04912 1.05841 1.06767 1.07691 1.08613 1.09533 1.10449 1.11364 1.12275 1.13184 1.14089 1.14992 1.15891 1.16787 1.1768 1.18569 1.19455 1.20337 1.21215 1.2209 1.2296 1.23827 1.24689 1.25547 1.26401 1.2725 1.28096 1.28936 1.29772 1.30603 1.3143 1.32251 1.33068 1.3388 1.34687 1.35488 1.36285 1.37076 1.37862 1.38642 1.39417 1.40186 1.4095 1.41708 1.42461 1.43207 1.43948 1.44683 1.45412 1.46135 1.46852 1.47563 1.48267 1.48966 1.49658 1.50343 1.51022 1.51695 1.52361 1.5302 1.53672 1.54318 1.54956 1.55587 1.56211 1.56828 1.57437 1.58039 1.58632 1.59218 
0.772406 0.781888 0.79137 0.800854 0.810339 0.819825 0.829312 0.838799 0.848287 0.857775 0.867263 0.876749 0.886234 0.895717 0.905198 0.914674 0.924147 0.933614 0.943075 0.952528 0.961974 0.97141 0.980836 0.990251 0.999653 1.00904 1.01842 1.02778 1.03712 1.04644 1.05575 1.06503 1.07429 1.08353 1.09275 1.10195 1.11111 1.12025 1.12937 1.13845 1.14751 1.15653 1.16552 1.17448 1.18341 1.1923 1.20116 1.20998 1.21876 1.2275 1.23621 1.24487 1.25349 1.26208 1.27061 1.27911 1.28756 1.29596 1.30432 1.31264 1.3209 1.32912 1.33728 1.3454 1.35347 1.36148 1.36945 1.37736 1.38522 1.39302 1.40077 1.40846 1.4161 1.42368 1.4312 1.43867 1.44608 1.45342 1.46071 1.46794 1.47511 1.48221 1.48925 1.49623 1.50315 1.51 1.51678 1.5235 1.53016 1.53674 1.54326 1.5497 1.55608 1.56238 1.56861 1.57477 1.58085 1.58686 1.59278 1.59863 
0.778782 0.788276 0.797771 0.807266 0.816763 0.82626 0.835757 0.845255 0.854752 0.864249 0.873745 0.883239 0.892731 0.902221 0.911707 0.921189 0.930666 0.940137 0.949601 0.959058 0.968506 0.977945 0.987373 0.996789 1.00619 1.01558 1.02496 1.03432 1.04366 1.05298 1.06229 1.07157 1.08083 1.09007 1.09929 1.10848 1.11765 1.12679 1.1359 1.14499 1.15404 1.16306 1.17206 1.18102 1.18994 1.19883 1.20769 1.21651 1.22529 1.23403 1.24273 1.2514 1.26002 1.2686 1.27714 1.28563 1.29408 1.30249 1.31085 1.31916 1.32742 1.33564 1.34381 1.35192 1.35999 1.36801 1.37597 1.38388 1.39174 1.39954 1.40729 1.41498 1.42262 1.4302 1.43772 1.44518 1.45259 1.45993 1.46722 1.47444 1.48161 1.48871 1.49575 1.50272 1.50964 1.51648 1.52326 1.52998 1.53662 1.5432 1.54971 1.55615 1.56252 1.56881 1.57504 1.58118 1.58725 1.59325 1.59917 1.605 
0.785081 0.794586 0.804093 0.813599 0.823106 0.832614 0.842121 0.851628 0.861135 0.87064 0.880144 0.889645 0.899144 0.90864 0.918132 0.927619 0.937101 0.946576 0.956044 0.965504 0.974955 0.984396 0.993826 1.00324 1.01265 1.02204 1.03141 1.04077 1.05012 1.05944 1.06874 1.07803 1.08729 1.09653 1.10575 1.11494 1.12411 1.13325 1.14236 1.15144 1.16049 1.16952 1.17851 1.18747 1.19639 1.20528 1.21414 1.22295 1.23174 1.24048 1.24918 1.25784 1.26647 1.27505 1.28358 1.29208 1.30053 1.30893 1.31729 1.3256 1.33387 1.34208 1.35025 1.35837 1.36643 1.37445 1.38241 1.39032 1.39818 1.40598 1.41372 1.42142 1.42905 1.43663 1.44415 1.45161 1.45902 1.46636 1.47364 1.48087 1.48803 1.49513 1.50216 1.50913 1.51604 1.52288 1.52966 1.53637 1.54301 1.54958 1.55608 1.56252 1.56888 1.57516 1.58138 1.58752 1.59358 1.59957 1.60547 1.6113 
0.791304 0.80082 0.810336 0.819853 0.82937 0.838887 0.848404 0.85792 0.867435 0.876948 0.886459 0.895968 0.905474 0.914976 0.924473 0.933965 0.943451 0.95293 0.962402 0.971865 0.981319 0.990762 1.00019 1.00961 1.01902 1.02841 1.03779 1.04715 1.05649 1.06582 1.07512 1.0844 1.09367 1.10291 1.11212 1.12132 1.13048 1.13962 1.14873 1.15781 1.16687 1.17589 1.18488 1.19384 1.20276 1.21165 1.2205 1.22932 1.2381 1.24684 1.25555 1.26421 1.27283 1.28141 1.28995 1.29844 1.30689 1.31529 1.32365 1.33196 1.34023 1.34844 1.35661 1.36473 1.37279 1.38081 1.38877 1.39668 1.40453 1.41233 1.42008 1.42777 1.43541 1.44298 1.4505 1.45796 1.46536 1.47271 1.47999 1.48721 1.49437 1.50146 1.50849 1.51546 1.52237 1.5292 1.53597 1.54268 1.54931 1.55588 1.56237 1.5688 1.57515 1.58143 1.58764 1.59377 1.59983 1.6058 1.6117 1.61752 
0.797449 0.806975 0.816501 0.826028 0.835554 0.84508 0.854606 0.86413 0.873653 0.883174 0.892692 0.902208 0.911719 0.921227 0.93073 0.940226 0.949717 0.9592 0.968676 0.978142 0.987598 0.997044 1.00648 1.0159 1.02531 1.0347 1.04408 1.05344 1.06278 1.07211 1.08141 1.0907 1.09996 1.1092 1.11842 1.12761 1.13677 1.14591 1.15502 1.1641 1.17316 1.18218 1.19117 1.20013 1.20905 1.21794 1.22679 1.23561 1.24439 1.25313 1.26183 1.27049 1.27911 1.28769 1.29623 1.30472 1.31317 1.32158 1.32993 1.33824 1.34651 1.35472 1.36289 1.371 1.37907 1.38708 1.39504 1.40295 1.41081 1.41861 1.42635 1.43404 1.44168 1.44925 1.45677 1.46423 1.47163 1.47897 1.48625 1.49347 1.50062 1.50771 1.51474 1.52171 1.52861 1.53544 1.54221 1.5489 1.55553 1.56209 1.56858 1.575 1.58135 1.58762 1.59382 1.59995 1.60599 1.61196 1.61785 1.62366 
0.803516 0.813051 0.822587 0.832122 0.841657 0.851192 0.860726 0.870258 0.879788 0.889316 0.898841 0.908363 0.917881 0.927394 0.936902 0.946404 0.955898 0.965386 0.974864 0.984334 0.993793 1.00324 1.01268 1.0221 1.03151 1.04091 1.05028 1.05965 1.06899 1.07832 1.08762 1.09691 1.10617 1.11541 1.12462 1.13382 1.14298 1.15212 1.16123 1.17031 1.17936 1.18838 1.19737 1.20633 1.21525 1.22414 1.233 1.24181 1.25059 1.25933 1.26803 1.2767 1.28532 1.29389 1.30243 1.31092 1.31937 1.32778 1.33613 1.34444 1.35271 1.36092 1.36909 1.3772 1.38527 1.39328 1.40124 1.40915 1.417 1.4248 1.43254 1.44023 1.44786 1.45544 1.46296 1.47041 1.47781 1.48515 1.49243 1.49964 1.50679 1.51388 1.52091 1.52787 1.53476 1.54159 1.54835 1.55505 1.56167 1.56823 1.57471 1.58113 1.58747 1.59373 1.59992 1.60604 1.61208 1.61804 1.62393 1.62973 
0.809505 0.819049 0.828593 0.838136 0.84768 0.857222 0.866764 0.876303 0.885841 0.895376 0.904907 0.914435 0.923959 0.933477 0.94299 0.952496 0.961995 0.971486 0.980968 0.990441 0.999903 1.00935 1.01879 1.02822 1.03763 1.04703 1.05641 1.06577 1.07511 1.08444 1.09375 1.10303 1.11229 1.12153 1.13075 1.13994 1.14911 1.15824 1.16735 1.17644 1.18549 1.19451 1.2035 1.21245 1.22138 1.23026 1.23912 1.24793 1.25671 1.26545 1.27415 1.28281 1.29143 1.30001 1.30855 1.31704 1.32549 1.33389 1.34225 1.35056 1.35882 1.36704 1.3752 1.38331 1.39138 1.39939 1.40735 1.41526 1.42311 1.43091 1.43865 1.44634 1.45397 1.46154 1.46906 1.47651 1.48391 1.49125 1.49852 1.50573 1.51288 1.51997 1.52699 1.53395 1.54084 1.54766 1.55442 1.56111 1.56773 1.57428 1.58076 1.58717 1.5935 1.59976 1.60595 1.61206 1.61809 1.62404 1.62992 1.63572 
0.815415 0.824966 0.834518 0.84407 0.853621 0.863171 0.87272 0.882266 0.89181 0.901352 0.910889 0.920423 0.929952 0.939475 0.948993 0.958503 0.968007 0.977501 0.986987 0.996463 1.00593 1.01538 1.02482 1.03425 1.04366 1.05306 1.06244 1.07181 1.08115 1.09048 1.09978 1.10907 1.11833 1.12757 1.13679 1.14598 1.15515 1.16428 1.17339 1.18248 1.19153 1.20055 1.20954 1.21849 1.22742 1.2363 1.24515 1.25397 1.26275 1.27149 1.28019 1.28885 1.29747 1.30605 1.31458 1.32308 1.33152 1.33993 1.34828 1.35659 1.36485 1.37307 1.38123 1.38934 1.39741 1.40542 1.41338 1.42128 1.42914 1.43693 1.44468 1.45236 1.45999 1.46756 1.47508 1.48253 1.48992 1.49726 1.50453 1.51174 1.51889 1.52597 1.53299 1.53994 1.54683 1.55365 1.5604 1.56709 1.5737 1.58025 1.58672 1.59312 1.59945 1.60571 1.61189 1.61799 1.62402 1.62997 1.63584 1.64163 