# vtk DataFile Version 3.0
cell
ASCII
DATASET STRUCTURED_POINTS
DIMENSIONS 100 100 1
ORIGIN 0 0 0
SPACING 0.010000 0.010000 1
POINT_DATA 10000
SCALARS sample_scalars double
LOOKUP_TABLE default
0.557656 0.563959 0.572167 0.581139 0.590463 0.599971 0.609582 0.619256 0.62897 0.638707 0.64846 0.65822 0.667983 0.677745 0.687503 0.697254 0.706997 0.716729 0.726448 0.736154 0.745844 0.755518 0.765173 0.774809 0.784425 0.794019 0.803591 0.813138 0.822662 0.832159 0.841629 0.851072 0.860485 0.869869 0.879222 0.888544 0.897832 0.907087 0.916308 0.925492 0.934641 0.943752 0.952824 0.961858 0.970851 0.979803 0.988714 0.997581 1.00641 1.01518 1.02392 1.03261 1.04125 1.04984 1.05838 1.06688 1.07532 1.08372 1.09206 1.10034 1.10858 1.11676 1.12488 1.13295 1.14096 1.14892 1.15681 1.16465 1.17242 1.18014 1.18779 1.19539 1.20292 1.21039 1.21779 1.22513 1.2324 1.23961 1.24675 1.25383 1.26083 1.26777 1.27465 1.28145 1.28819 1.29486 1.30146 1.30799 1.31445 1.32086 1.3272 1.33348 1.3397 1.34589 1.35205 1.35821 1.36443 1.37084 1.37775 1.38601 
0.569452 0.575755 0.583411 0.591867 0.600789 0.609991 0.619368 0.628859 0.638425 0.648043 0.657697 0.667374 0.677066 0.686767 0.696472 0.706177 0.715878 0.725574 0.735261 0.744937 0.754601 0.76425 0.773884 0.7835 0.793097 0.802675 0.812231 0.821765 0.831275 0.84076 0.850219 0.859652 0.869056 0.878431 0.887776 0.897089 0.906371 0.91562 0.924834 0.934013 0.943156 0.952263 0.961331 0.970361 0.979351 0.9883 0.997208 1.00607 1.01489 1.02367 1.03241 1.04109 1.04973 1.05832 1.06687 1.07536 1.08381 1.0922 1.10054 1.10883 1.11707 1.12525 1.13338 1.14145 1.14946 1.15742 1.16532 1.17316 1.18095 1.18867 1.19633 1.20393 1.21147 1.21895 1.22636 1.23371 1.241 1.24822 1.25538 1.26247 1.26949 1.27645 1.28335 1.29018 1.29695 1.30365 1.31029 1.31687 1.32338 1.32985 1.33626 1.34263 1.34897 1.35529 1.36162 1.36801 1.37454 1.38134 1.38866 1.39691 
0.579285 0.586141 0.593798 0.60207 0.610775 0.619776 0.628979 0.638323 0.647766 0.65728 0.666845 0.676446 0.686073 0.695717 0.705372 0.715032 0.724695 0.734355 0.744011 0.753659 0.763297 0.772923 0.782535 0.792132 0.801712 0.811273 0.820814 0.830334 0.839831 0.849304 0.858753 0.868175 0.877569 0.886936 0.896272 0.905579 0.914853 0.924095 0.933304 0.942478 0.951616 0.960718 0.969782 0.978808 0.987794 0.99674 1.00565 1.01451 1.02333 1.0321 1.04084 1.04952 1.05816 1.06675 1.0753 1.08379 1.09224 1.10063 1.10897 1.11727 1.1255 1.13369 1.14182 1.14989 1.15791 1.16587 1.17378 1.18162 1.18941 1.19714 1.20481 1.21242 1.21997 1.22745 1.23487 1.24224 1.24953 1.25677 1.26394 1.27105 1.27809 1.28507 1.29199 1.29885 1.30564 1.31238 1.31905 1.32567 1.33224 1.33876 1.34524 1.35168 1.35811 1.36454 1.37101 1.37755 1.38423 1.39117 1.39849 1.40633 
0.588297 0.595669 0.60351 0.611783 0.620406 0.629297 0.638387 0.647624 0.656972 0.666401 0.675891 0.685426 0.694994 0.704587 0.714196 0.723816 0.733442 0.743069 0.752695 0.762316 0.771929 0.781533 0.791125 0.800703 0.810265 0.81981 0.829337 0.838843 0.848328 0.857789 0.867227 0.876639 0.886025 0.895382 0.904711 0.91401 0.923278 0.932514 0.941716 0.950885 0.960018 0.969115 0.978175 0.987197 0.99618 1.00512 1.01403 1.02289 1.0317 1.04048 1.04921 1.05789 1.06653 1.07512 1.08367 1.09216 1.10061 1.109 1.11735 1.12564 1.13388 1.14207 1.1502 1.15828 1.1663 1.17427 1.18218 1.19003 1.19782 1.20556 1.21323 1.22085 1.2284 1.2359 1.24333 1.2507 1.25801 1.26526 1.27245 1.27957 1.28663 1.29363 1.30057 1.30745 1.31427 1.32103 1.32774 1.3344 1.34101 1.34758 1.35411 1.36062 1.36712 1.37363 1.38018 1.3868 1.39355 1.40048 1.40766 1.41511 
0.596896 0.604672 0.61273 0.621085 0.629709 0.638557 0.647584 0.656753 0.666031 0.675395 0.684825 0.694305 0.703824 0.713371 0.722939 0.732522 0.742114 0.751711 0.761309 0.770905 0.780495 0.790077 0.79965 0.80921 0.818756 0.828286 0.837798 0.847291 0.856764 0.866214 0.875641 0.885044 0.89442 0.903769 0.913091 0.922382 0.931643 0.940873 0.95007 0.959233 0.968361 0.977454 0.98651 0.995529 1.00451 1.01345 1.02235 1.03121 1.04002 1.0488 1.05752 1.06621 1.07485 1.08344 1.09198 1.10048 1.10892 1.11732 1.12566 1.13396 1.1422 1.15039 1.15852 1.16661 1.17463 1.1826 1.19051 1.19837 1.20617 1.21391 1.22159 1.22921 1.23678 1.24428 1.25172 1.25911 1.26643 1.27369 1.28089 1.28802 1.2951 1.30212 1.30908 1.31598 1.32283 1.32962 1.33636 1.34305 1.34969 1.3563 1.36288 1.36943 1.37598 1.38255 1.38914 1.39579 1.40254 1.40941 1.41642 1.42357 
0.605251 0.613333 0.621593 0.630059 0.638727 0.647575 0.656577 0.665707 0.67494 0.684257 0.693641 0.703077 0.712555 0.722064 0.731597 0.741147 0.750709 0.760278 0.769851 0.779423 0.788992 0.798554 0.808108 0.817651 0.827182 0.836697 0.846196 0.855676 0.865137 0.874577 0.883994 0.893387 0.902754 0.912096 0.921409 0.930694 0.939948 0.949172 0.958363 0.967521 0.976645 0.985733 0.994785 1.0038 1.01278 1.02171 1.03061 1.03947 1.04828 1.05705 1.06578 1.07446 1.0831 1.09169 1.10023 1.10873 1.11718 1.12557 1.13392 1.14222 1.15046 1.15865 1.16679 1.17487 1.1829 1.19088 1.19879 1.20665 1.21446 1.2222 1.22989 1.23752 1.24509 1.2526 1.26005 1.26745 1.27478 1.28205 1.28926 1.29641 1.30351 1.31054 1.31752 1.32444 1.33131 1.33812 1.34488 1.3516 1.35828 1.36492 1.37153 1.37812 1.3847 1.39129 1.3979 1.40456 1.41127 1.41805 1.42492 1.43183 
0.613438 0.621755 0.63019 0.63877 0.647501 0.656375 0.665377 0.674491 0.683699 0.692986 0.702337 0.711739 0.721184 0.730661 0.740164 0.749687 0.759222 0.768767 0.778317 0.787868 0.797417 0.806961 0.816498 0.826025 0.835541 0.845042 0.854528 0.863997 0.873446 0.882876 0.892283 0.901667 0.911026 0.92036 0.929666 0.938944 0.948192 0.957409 0.966595 0.975748 0.984867 0.993951 1.003 1.01201 1.02098 1.02992 1.03881 1.04767 1.05648 1.06525 1.07397 1.08266 1.09129 1.09988 1.10843 1.11692 1.12537 1.13377 1.14212 1.15041 1.15866 1.16685 1.17499 1.18308 1.19111 1.19909 1.20701 1.21488 1.22268 1.23044 1.23813 1.24577 1.25334 1.26086 1.26832 1.27572 1.28306 1.29035 1.29757 1.30473 1.31184 1.31889 1.32588 1.33282 1.33971 1.34654 1.35333 1.36007 1.36677 1.37343 1.38006 1.38668 1.39328 1.39988 1.40649 1.41312 1.41979 1.42648 1.43321 1.43995 
0.621497 0.629998 0.638581 0.647268 0.656069 0.664982 0.674001 0.683116 0.692313 0.701582 0.710911 0.72029 0.729709 0.739162 0.74864 0.758139 0.767652 0.777175 0.786705 0.796237 0.805768 0.815296 0.824817 0.834329 0.843831 0.85332 0.862794 0.872251 0.88169 0.891109 0.900507 0.909883 0.919234 0.92856 0.937859 0.94713 0.956372 0.965584 0.974765 0.983913 0.993028 1.00211 1.01115 1.02016 1.02913 1.03806 1.04695 1.05581 1.06462 1.07338 1.08211 1.09079 1.09942 1.10801 1.11656 1.12505 1.1335 1.1419 1.15025 1.15855 1.1668 1.17499 1.18313 1.19122 1.19926 1.20724 1.21516 1.22303 1.23085 1.2386 1.2463 1.25395 1.26153 1.26906 1.27652 1.28393 1.29128 1.29857 1.30581 1.31299 1.3201 1.32717 1.33417 1.34113 1.34803 1.35488 1.36168 1.36844 1.37516 1.38184 1.38849 1.39511 1.40172 1.40832 1.41492 1.42152 1.42813 1.43475 1.44136 1.44796 
0.62945 0.638099 0.646806 0.655589 0.664459 0.673419 0.682464 0.69159 0.700788 0.710049 0.719365 0.728728 0.73813 0.747563 0.757022 0.766502 0.775996 0.785501 0.795013 0.804528 0.814044 0.823556 0.833063 0.842562 0.852051 0.861528 0.870991 0.880437 0.889867 0.899277 0.908666 0.918033 0.927377 0.936695 0.945988 0.955253 0.964489 0.973695 0.982871 0.992014 1.00112 1.0102 1.01924 1.02825 1.03721 1.04614 1.05503 1.06388 1.07269 1.08146 1.09018 1.09886 1.10749 1.11608 1.12463 1.13312 1.14157 1.14997 1.15832 1.16662 1.17487 1.18307 1.19121 1.1993 1.20734 1.21532 1.22325 1.23113 1.23895 1.24671 1.25441 1.26206 1.26965 1.27718 1.28466 1.29207 1.29943 1.30673 1.31398 1.32116 1.32829 1.33537 1.34239 1.34935 1.35627 1.36313 1.36995 1.37672 1.38345 1.39014 1.3968 1.40343 1.41003 1.41662 1.4232 1.42977 1.43632 1.44287 1.44939 1.45588 
0.637311 0.64608 0.654891 0.663761 0.672696 0.681703 0.69078 0.699924 0.70913 0.718392 0.727703 0.737056 0.746446 0.755866 0.76531 0.774774 0.784253 0.793743 0.80324 0.812741 0.822242 0.831741 0.841235 0.850722 0.860199 0.869665 0.879118 0.888555 0.897975 0.907376 0.916757 0.926116 0.935453 0.944764 0.954051 0.96331 0.97254 0.981742 0.990912 1.00005 1.00916 1.01823 1.02727 1.03627 1.04523 1.05416 1.06305 1.07189 1.0807 1.08946 1.09819 1.10687 1.1155 1.12409 1.13263 1.14113 1.14958 1.15798 1.16633 1.17463 1.18288 1.19108 1.19922 1.20732 1.21536 1.22335 1.23128 1.23916 1.24698 1.25474 1.26245 1.27011 1.2777 1.28524 1.29272 1.30015 1.30751 1.31482 1.32207 1.32927 1.33641 1.34349 1.35052 1.3575 1.36442 1.3713 1.37812 1.3849 1.39164 1.39834 1.405 1.41163 1.41823 1.4248 1.43135 1.43788 1.44439 1.45087 1.45731 1.4637 
0.645086 0.653955 0.662855 0.6718 0.680797 0.689851 0.698961 0.708128 0.717348 0.726615 0.735927 0.745276 0.754659 0.764069 0.773503 0.782955 0.792422 0.801899 0.811384 0.820872 0.830361 0.839849 0.849332 0.858808 0.868275 0.877731 0.887173 0.896601 0.906013 0.915406 0.92478 0.934132 0.943461 0.952767 0.962047 0.9713 0.980525 0.989722 0.998888 1.00802 1.01712 1.02619 1.03523 1.04422 1.05319 1.06211 1.07099 1.07984 1.08865 1.09741 1.10613 1.11481 1.12344 1.13203 1.14057 1.14907 1.15752 1.16592 1.17427 1.18257 1.19082 1.19902 1.20717 1.21527 1.22331 1.2313 1.23924 1.24712 1.25494 1.26271 1.27043 1.27809 1.28569 1.29323 1.30072 1.30815 1.31552 1.32284 1.3301 1.3373 1.34445 1.35154 1.35858 1.36556 1.37249 1.37938 1.38621 1.39299 1.39974 1.40644 1.4131 1.41972 1.42631 1.43286 1.43939 1.44588 1.45234 1.45876 1.46514 1.47146 
0.652781 0.661734 0.670711 0.679723 0.688776 0.697874 0.707019 0.71621 0.725446 0.734724 0.74404 0.75339 0.76277 0.772175 0.781601 0.791045 0.800503 0.80997 0.819444 0.828922 0.838401 0.847879 0.857352 0.866818 0.876276 0.885723 0.895157 0.904577 0.91398 0.923366 0.932732 0.942078 0.951401 0.9607 0.969974 0.979222 0.988443 0.997634 1.0068 1.01593 1.02502 1.03409 1.04312 1.05212 1.06107 1.07 1.07888 1.08772 1.09652 1.10529 1.11401 1.12268 1.13132 1.1399 1.14845 1.15694 1.16539 1.17379 1.18215 1.19045 1.1987 1.2069 1.21505 1.22315 1.2312 1.23919 1.24713 1.25501 1.26284 1.27062 1.27833 1.286 1.2936 1.30115 1.30864 1.31608 1.32346 1.33078 1.33805 1.34525 1.35241 1.35951 1.36655 1.37354 1.38048 1.38737 1.3942 1.40099 1.40774 1.41444 1.42109 1.42771 1.43428 1.44082 1.44731 1.45377 1.46019 1.46656 1.47287 1.47913 
0.6604 0.669424 0.678468 0.687539 0.696642 0.705782 0.71496 0.724178 0.733433 0.742723 0.752047 0.761401 0.770781 0.780184 0.789606 0.799044 0.808494 0.817954 0.827421 0.83689 0.846361 0.855829 0.865294 0.874752 0.884201 0.89364 0.903067 0.912479 0.921875 0.931254 0.940614 0.949953 0.95927 0.968564 0.977833 0.987076 0.996292 1.00548 1.01464 1.02376 1.03286 1.04192 1.05095 1.05994 1.0689 1.07781 1.08669 1.09554 1.10434 1.1131 1.12182 1.13049 1.13913 1.14771 1.15626 1.16475 1.1732 1.1816 1.18996 1.19826 1.20651 1.21472 1.22287 1.23097 1.23902 1.24701 1.25495 1.26284 1.27067 1.27845 1.28617 1.29384 1.30145 1.309 1.3165 1.32394 1.33132 1.33865 1.34592 1.35313 1.36029 1.3674 1.37445 1.38144 1.38838 1.39527 1.40211 1.4089 1.41564 1.42234 1.42899 1.43559 1.44215 1.44867 1.45514 1.46156 1.46794 1.47427 1.48053 1.48673 
0.667944 0.67703 0.686132 0.695255 0.704404 0.713583 0.722794 0.732037 0.741311 0.750617 0.75995 0.76931 0.778693 0.788096 0.797517 0.806952 0.816398 0.825852 0.835312 0.844775 0.854239 0.8637 0.873157 0.882608 0.89205 0.901482 0.910902 0.920308 0.929698 0.93907 0.948424 0.957758 0.967069 0.976358 0.985622 0.99486 1.00407 1.01325 1.02241 1.03153 1.04062 1.04968 1.0587 1.06769 1.07665 1.08556 1.09444 1.10328 1.11208 1.12084 1.12956 1.13823 1.14687 1.15545 1.164 1.17249 1.18094 1.18934 1.1977 1.206 1.21426 1.22246 1.23061 1.23872 1.24677 1.25476 1.26271 1.2706 1.27843 1.28621 1.29394 1.3016 1.30922 1.31678 1.32428 1.33172 1.33911 1.34644 1.35372 1.36093 1.3681 1.37521 1.38226 1.38926 1.3962 1.40309 1.40993 1.41672 1.42346 1.43015 1.43679 1.44338 1.44992 1.45642 1.46287 1.46926 1.4756 1.48189 1.48811 1.49426 
0.675415 0.684555 0.693707 0.702877 0.712068 0.721283 0.730524 0.739792 0.749087 0.758408 0.767753 0.777121 0.786509 0.795915 0.805336 0.814769 0.824213 0.833663 0.843119 0.852577 0.862035 0.87149 0.880941 0.890386 0.899822 0.909248 0.918662 0.928061 0.937446 0.946813 0.956161 0.965489 0.974796 0.98408 0.993339 1.00257 1.01178 1.02096 1.03011 1.03923 1.04832 1.05737 1.06639 1.07538 1.08433 1.09325 1.10212 1.11096 1.11976 1.12852 1.13723 1.14591 1.15454 1.16313 1.17167 1.18016 1.18861 1.19702 1.20537 1.21367 1.22193 1.23014 1.23829 1.24639 1.25445 1.26244 1.27039 1.27828 1.28612 1.2939 1.30163 1.3093 1.31692 1.32448 1.33198 1.33943 1.34682 1.35416 1.36144 1.36866 1.37582 1.38294 1.38999 1.39699 1.40394 1.41083 1.41767 1.42445 1.43118 1.43787 1.4445 1.45108 1.4576 1.46408 1.4705 1.47687 1.48318 1.48943 1.49561 1.50172 
0.682814 0.692001 0.701198 0.71041 0.719638 0.728887 0.738157 0.747449 0.756764 0.766101 0.775459 0.784836 0.79423 0.80364 0.813063 0.822497 0.831939 0.841388 0.85084 0.860295 0.869748 0.879199 0.888645 0.898085 0.907516 0.916937 0.926345 0.93574 0.945119 0.954481 0.963824 0.973148 0.98245 0.991729 1.00098 1.01021 1.01942 1.02859 1.03774 1.04686 1.05594 1.06499 1.07401 1.083 1.09195 1.10086 1.10973 1.11857 1.12737 1.13612 1.14484 1.15351 1.16214 1.17073 1.17927 1.18777 1.19622 1.20462 1.21297 1.22128 1.22953 1.23774 1.2459 1.254 1.26205 1.27006 1.278 1.2859 1.29374 1.30152 1.30925 1.31693 1.32454 1.33211 1.33961 1.34707 1.35446 1.3618 1.36908 1.3763 1.38347 1.39058 1.39764 1.40464 1.41159 1.41848 1.42531 1.43209 1.43882 1.4455 1.45212 1.45868 1.46519 1.47165 1.47805 1.48439 1.49067 1.49688 1.50303 1.50911 
0.690141 0.69937 0.708607 0.717856 0.727119 0.736398 0.745695 0.755011 0.764346 0.773699 0.783069 0.792457 0.801859 0.811274 0.8207 0.830136 0.839578 0.849026 0.858477 0.867929 0.877379 0.886827 0.896269 0.905705 0.915131 0.924547 0.933951 0.943341 0.952716 0.962074 0.971413 0.980732 0.99003 0.999306 1.00856 1.01778 1.02698 1.03616 1.0453 1.05441 1.06349 1.07254 1.08156 1.09054 1.09949 1.1084 1.11727 1.12611 1.1349 1.14366 1.15237 1.16105 1.16968 1.17826 1.1868 1.1953 1.20375 1.21215 1.2205 1.22881 1.23707 1.24528 1.25343 1.26154 1.26959 1.27759 1.28554 1.29344 1.30128 1.30907 1.3168 1.32448 1.3321 1.33966 1.34717 1.35462 1.36202 1.36936 1.37664 1.38387 1.39104 1.39815 1.40521 1.41221 1.41915 1.42604 1.43287 1.43965 1.44637 1.45304 1.45965 1.4662 1.47269 1.47913 1.48551 1.49183 1.49808 1.50427 1.51038 1.51642 
0.697397 0.706663 0.715936 0.725218 0.734512 0.74382 0.753143 0.762481 0.771834 0.781203 0.790587 0.799985 0.809395 0.818817 0.828247 0.837686 0.84713 0.856578 0.866029 0.875479 0.884928 0.894372 0.903812 0.913244 0.922667 0.93208 0.94148 0.950866 0.960237 0.96959 0.978926 0.988241 0.997536 1.00681 1.01606 1.02528 1.03447 1.04364 1.05278 1.06189 1.07097 1.08002 1.08904 1.09802 1.10696 1.11587 1.12474 1.13357 1.14237 1.15112 1.15984 1.16851 1.17714 1.18572 1.19426 1.20276 1.21121 1.21961 1.22797 1.23627 1.24453 1.25274 1.2609 1.269 1.27706 1.28506 1.29301 1.30091 1.30875 1.31654 1.32427 1.33195 1.33957 1.34714 1.35465 1.36211 1.36951 1.37685 1.38413 1.39136 1.39853 1.40564 1.4127 1.41969 1.42664 1.43352 1.44035 1.44712 1.45383 1.46049 1.46709 1.47363 1.48011 1.48653 1.49289 1.49918 1.50541 1.51157 1.51766 1.52367 
0.704581 0.71388 0.723185 0.732498 0.741821 0.751155 0.760501 0.76986 0.779232 0.788617 0.798014 0.807423 0.816842 0.82627 0.835706 0.845148 0.854595 0.864045 0.873495 0.882945 0.892393 0.901836 0.911273 0.920703 0.930123 0.939533 0.94893 0.958313 0.96768 0.97703 0.986363 0.995675 1.00497 1.01423 1.02348 1.0327 1.04189 1.05106 1.0602 1.0693 1.07838 1.08743 1.09644 1.10542 1.11436 1.12327 1.13214 1.14097 1.14976 1.15852 1.16723 1.1759 1.18453 1.19311 1.20165 1.21015 1.2186 1.227 1.23535 1.24366 1.25192 1.26013 1.26829 1.27639 1.28445 1.29245 1.3004 1.3083 1.31615 1.32394 1.33167 1.33935 1.34698 1.35454 1.36206 1.36951 1.37691 1.38425 1.39154 1.39877 1.40594 1.41305 1.4201 1.4271 1.43404 1.44092 1.44774 1.45451 1.46121 1.46786 1.47445 1.48097 1.48744 1.49384 1.50018 1.50646 1.51266 1.5188 1.52486 1.53085 
0.711693 0.721023 0.730357 0.739698 0.749047 0.758405 0.767773 0.777152 0.786541 0.795941 0.805351 0.814771 0.824199 0.833635 0.843077 0.852524 0.861974 0.871425 0.880877 0.890327 0.899775 0.909217 0.918653 0.928081 0.937499 0.946906 0.956301 0.965681 0.975045 0.984393 0.993722 1.00303 1.01232 1.02159 1.03083 1.04004 1.04924 1.0584 1.06753 1.07664 1.08572 1.09476 1.10377 1.11274 1.12169 1.13059 1.13946 1.14829 1.15708 1.16583 1.17455 1.18322 1.19184 1.20043 1.20897 1.21746 1.22591 1.23431 1.24267 1.25098 1.25923 1.26744 1.2756 1.28371 1.29177 1.29977 1.30772 1.31562 1.32347 1.33126 1.339 1.34668 1.3543 1.36187 1.36938 1.37684 1.38424 1.39158 1.39887 1.40609 1.41326 1.42037 1.42743 1.43442 1.44136 1.44823 1.45505 1.46181 1.46851 1.47514 1.48172 1.48823 1.49469 1.50107 1.5074 1.51365 1.51984 1.52595 1.53199 1.53795 
0.718734 0.728091 0.737452 0.746818 0.756191 0.765571 0.774959 0.784357 0.793763 0.803178 0.812601 0.822031 0.831469 0.840913 0.850361 0.859812 0.869266 0.878721 0.888174 0.897626 0.907073 0.916515 0.925951 0.935377 0.944794 0.954199 0.963592 0.97297 0.982332 0.991678 1.001 1.01031 1.0196 1.02886 1.0381 1.04731 1.0565 1.06566 1.0748 1.0839 1.09297 1.10201 1.11102 1.12 1.12894 1.13784 1.14671 1.15554 1.16433 1.17308 1.18179 1.19046 1.19909 1.20767 1.21621 1.2247 1.23315 1.24155 1.24991 1.25822 1.26648 1.27469 1.28284 1.29095 1.29901 1.30702 1.31497 1.32287 1.33071 1.33851 1.34624 1.35392 1.36155 1.36912 1.37663 1.38409 1.39149 1.39883 1.40612 1.41334 1.42051 1.42762 1.43467 1.44166 1.44859 1.45546 1.46228 1.46903 1.47572 1.48234 1.48891 1.49541 1.50185 1.50822 1.51453 1.52077 1.52693 1.53303 1.53905 1.54499 
0.725703 0.735084 0.744469 0.753858 0.763253 0.772654 0.782062 0.791477 0.800899 0.810328 0.819763 0.829205 0.838652 0.848103 0.857558 0.867015 0.876473 0.885931 0.895387 0.90484 0.914288 0.923731 0.933166 0.942592 0.952008 0.961412 0.970803 0.98018 0.98954 0.998883 1.00821 1.01751 1.0268 1.03606 1.04529 1.05451 1.06369 1.07285 1.08198 1.09109 1.10016 1.1092 1.1182 1.12718 1.13611 1.14502 1.15388 1.16271 1.1715 1.18025 1.18896 1.19763 1.20625 1.21484 1.22338 1.23187 1.24032 1.24872 1.25708 1.26538 1.27364 1.28185 1.29001 1.29812 1.30618 1.31418 1.32214 1.33004 1.33788 1.34568 1.35341 1.36109 1.36872 1.37629 1.3838 1.39126 1.39866 1.406 1.41328 1.42051 1.42768 1.43478 1.44183 1.44882 1.45574 1.46261 1.46942 1.47616 1.48284 1.48946 1.49602 1.50251 1.50894 1.51529 1.52158 1.5278 1.53395 1.54003 1.54603 1.55195 
0.732599 0.742003 0.75141 0.760821 0.770236 0.779656 0.789081 0.798513 0.80795 0.817392 0.82684 0.836292 0.845748 0.855208 0.864669 0.874132 0.883595 0.893056 0.902515 0.91197 0.92142 0.930863 0.940299 0.949725 0.95914 0.968544 0.977934 0.987309 0.996668 1.00601 1.01533 1.02464 1.03392 1.04318 1.05241 1.06162 1.07081 1.07996 1.08909 1.09819 1.10726 1.1163 1.12531 1.13428 1.14321 1.15212 1.16098 1.16981 1.1786 1.18734 1.19605 1.20472 1.21335 1.22193 1.23047 1.23896 1.24741 1.25581 1.26417 1.27247 1.28073 1.28894 1.2971 1.30521 1.31327 1.32128 1.32923 1.33713 1.34498 1.35277 1.36051 1.36819 1.37581 1.38338 1.3909 1.39835 1.40575 1.41309 1.42037 1.4276 1.43476 1.44187 1.44891 1.45589 1.46282 1.46968 1.47648 1.48322 1.48989 1.4965 1.50305 1.50953 1.51594 1.52228 1.52856 1.53476 1.5409 1.54696 1.55294 1.55884 
0.739422 0.748847 0.758274 0.767704 0.777138 0.786576 0.796018 0.805465 0.814916 0.824372 0.833831 0.843294 0.852759 0.862227 0.871695 0.881164 0.890631 0.900097 0.909559 0.919016 0.928468 0.937913 0.947349 0.956776 0.966191 0.975594 0.984983 0.994358 1.00372 1.01306 1.02238 1.03168 1.04096 1.05022 1.05945 1.06866 1.07784 1.087 1.09613 1.10522 1.11429 1.12333 1.13233 1.1413 1.15024 1.15914 1.168 1.17683 1.18562 1.19436 1.20307 1.21174 1.22036 1.22894 1.23748 1.24598 1.25442 1.26283 1.27118 1.27949 1.28775 1.29596 1.30412 1.31223 1.32028 1.32829 1.33624 1.34414 1.35199 1.35978 1.36752 1.3752 1.38283 1.3904 1.39791 1.40537 1.41276 1.4201 1.42738 1.4346 1.44177 1.44887 1.45591 1.46289 1.46981 1.47666 1.48346 1.49019 1.49685 1.50345 1.50999 1.51646 1.52286 1.52919 1.53546 1.54165 1.54776 1.55381 1.55977 1.56566 
0.746172 0.755616 0.765062 0.77451 0.783961 0.793416 0.802874 0.812335 0.821799 0.831267 0.840738 0.85021 0.859685 0.86916 0.878636 0.88811 0.897583 0.907052 0.916518 0.925979 0.935433 0.944879 0.954316 0.963744 0.973159 0.982562 0.991951 1.00133 1.01068 1.02002 1.02934 1.03864 1.04792 1.05718 1.06641 1.07562 1.0848 1.09395 1.10308 1.11218 1.12124 1.13028 1.13928 1.14825 1.15719 1.16608 1.17495 1.18377 1.19256 1.20131 1.21001 1.21868 1.2273 1.23588 1.24442 1.25291 1.26136 1.26976 1.27812 1.28643 1.29468 1.30289 1.31105 1.31916 1.32722 1.33523 1.34318 1.35108 1.35893 1.36672 1.37446 1.38214 1.38976 1.39733 1.40484 1.4123 1.41969 1.42703 1.43431 1.44153 1.44869 1.45579 1.46282 1.4698 1.47671 1.48356 1.49035 1.49708 1.50373 1.51033 1.51685 1.52331 1.5297 1.53602 1.54227 1.54845 1.55456 1.56058 1.56654 1.57241 
0.752849 0.76231 0.771773 0.781238 0.790705 0.800175 0.809647 0.819122 0.828599 0.838079 0.84756 0.857043 0.866526 0.876009 0.885491 0.894972 0.90445 0.913924 0.923393 0.932857 0.942313 0.951761 0.9612 0.970629 0.980045 0.989448 0.998838 1.00821 1.01757 1.02691 1.03623 1.04553 1.0548 1.06406 1.07329 1.0825 1.09168 1.10083 1.10996 1.11905 1.12812 1.13715 1.14615 1.15512 1.16405 1.17295 1.18181 1.19064 1.19942 1.20817 1.21688 1.22554 1.23416 1.24275 1.25128 1.25978 1.26822 1.27662 1.28498 1.29328 1.30154 1.30975 1.31791 1.32602 1.33408 1.34208 1.35004 1.35794 1.36578 1.37358 1.38131 1.38899 1.39662 1.40419 1.4117 1.41915 1.42655 1.43388 1.44116 1.44837 1.45553 1.46263 1.46966 1.47663 1.48354 1.49038 1.49717 1.50388 1.51053 1.51712 1.52364 1.53009 1.53647 1.54278 1.54901 1.55518 1.56127 1.56728 1.57322 1.57908 
0.759451 0.768928 0.778407 0.787887 0.79737 0.806854 0.81634 0.825827 0.835317 0.844807 0.854299 0.863791 0.873282 0.882773 0.892262 0.901749 0.911232 0.92071 0.930184 0.939651 0.94911 0.95856 0.968001 0.977431 0.986848 0.996252 1.00564 1.01502 1.02437 1.03371 1.04303 1.05233 1.06161 1.07086 1.08009 1.0893 1.09848 1.10763 1.11675 1.12585 1.13491 1.14394 1.15294 1.16191 1.17084 1.17974 1.1886 1.19742 1.20621 1.21496 1.22366 1.23233 1.24095 1.24953 1.25807 1.26656 1.275 1.28341 1.29176 1.30007 1.30832 1.31653 1.32469 1.3328 1.34086 1.34886 1.35682 1.36472 1.37256 1.38035 1.38809 1.39577 1.40339 1.41096 1.41847 1.42592 1.43332 1.44065 1.44792 1.45514 1.46229 1.46938 1.47641 1.48338 1.49028 1.49712 1.5039 1.51061 1.51725 1.52383 1.53034 1.53678 1.54315 1.54945 1.55567 1.56183 1.56791 1.57391 1.57983 1.58568 
0.765978 0.775471 0.784964 0.794459 0.803955 0.813452 0.822951 0.832451 0.841952 0.851453 0.860954 0.870455 0.879955 0.889453 0.898949 0.908441 0.917929 0.927413 0.93689 0.94636 0.955822 0.965275 0.974718 0.984149 0.993568 1.00297 1.01236 1.02174 1.03109 1.04043 1.04975 1.05905 1.06833 1.07758 1.08681 1.09602 1.10519 1.11435 1.12347 1.13256 1.14163 1.15066 1.15966 1.16862 1.17755 1.18645 1.19531 1.20413 1.21292 1.22166 1.23037 1.23903 1.24765 1.25623 1.26477 1.27326 1.28171 1.29011 1.29846 1.30677 1.31503 1.32323 1.33139 1.3395 1.34756 1.35556 1.36352 1.37141 1.37926 1.38705 1.39479 1.40246 1.41009 1.41765 1.42516 1.43261 1.44 1.44734 1.45461 1.46182 1.46897 1.47606 1.48308 1.49005 1.49694 1.50378 1.51055 1.51725 1.52389 1.53046 1.53696 1.54339 1.54975 1.55604 1.56226 1.5684 1.57447 1.58046 1.58637 1.5922 
0.77243 0.781936 0.791444 0.800952 0.810461 0.819971 0.829481 0.838993 0.848504 0.858015 0.867526 0.877035 0.886543 0.896048 0.905551 0.915049 0.924543 0.934031 0.943512 0.952986 0.962451 0.971906 0.981351 0.990784 1.0002 1.00961 1.019 1.02838 1.03773 1.04707 1.05639 1.06569 1.07497 1.08422 1.09345 1.10265 1.11183 1.12098 1.1301 1.1392 1.14826 1.15729 1.16629 1.17525 1.18418 1.19308 1.20194 1.21076 1.21954 1.22829 1.23699 1.24566 1.25428 1.26286 1.27139 1.27988 1.28833 1.29673 1.30508 1.31339 1.32165 1.32985 1.33801 1.34612 1.35418 1.36218 1.37013 1.37803 1.38588 1.39367 1.4014 1.40908 1.4167 1.42427 1.43177 1.43922 1.44661 1.45394 1.46121 1.46842 1.47556 1.48265 1.48967 1.49663 1.50352 1.51035 1.51712 1.52381 1.53044 1.53701 1.5435 1.54992 1.55627 1.56255 1.56876 1.57489 1.58095 1.58693 1.59283 1.59865 
0.778807 0.788326 0.797845 0.807366 0.816887 0.826409 0.835931 0.845452 0.854974 0.864495 0.874014 0.883532 0.893047 0.90256 0.912068 0.921572 0.931071 0.940564 0.950049 0.959527 0.968995 0.978453 0.9879 0.997335 1.00676 1.01616 1.02556 1.03493 1.04429 1.05363 1.06295 1.07225 1.08152 1.09077 1.1 1.10921 1.11839 1.12754 1.13666 1.14575 1.15481 1.16384 1.17284 1.1818 1.19073 1.19963 1.20849 1.21731 1.22609 1.23484 1.24354 1.2522 1.26082 1.2694 1.27794 1.28643 1.29487 1.30327 1.31163 1.31993 1.32819 1.3364 1.34455 1.35266 1.36072 1.36872 1.37667 1.38457 1.39241 1.4002 1.40794 1.41561 1.42323 1.4308 1.4383 1.44575 1.45313 1.46046 1.46773 1.47493 1.48208 1.48916 1.49618 1.50313 1.51002 1.51685 1.5236 1.53029 1.53692 1.54347 1.54996 1.55637 1.56272 1.56899 1.57519 1.58131 1.58735 1.59332 1.59922 1.60503 
0.785107 0.794638 0.804169 0.813701 0.823234 0.832766 0.842299 0.85183 0.861362 0.870891 0.880419 0.889945 0.899468 0.908987 0.918501 0.928011 0.937515 0.947012 0.956502 0.965983 0.975454 0.984915 0.994365 1.0038 1.01322 1.02263 1.03203 1.0414 1.05076 1.0601 1.06942 1.07872 1.088 1.09725 1.10648 1.11568 1.12486 1.13401 1.14313 1.15222 1.16128 1.17031 1.17931 1.18827 1.1972 1.2061 1.21495 1.22378 1.23256 1.2413 1.25 1.25867 1.26729 1.27587 1.2844 1.29289 1.30133 1.30973 1.31809 1.32639 1.33465 1.34285 1.35101 1.35912 1.36717 1.37518 1.38313 1.39102 1.39887 1.40665 1.41439 1.42206 1.42968 1.43724 1.44475 1.45219 1.45958 1.4669 1.47417 1.48137 1.48851 1.49559 1.5026 1.50955 1.51644 1.52325 1.53001 1.53669 1.54331 1.54986 1.55634 1.56274 1.56908 1.57534 1.58153 1.58764 1.59368 1.59964 1.60552 1.61133 
0.79133 0.800872 0.810414 0.819957 0.8295 0.839043 0.848585 0.858127 0.867667 0.877205 0.886741 0.896274 0.905804 0.915329 0.92485 0.934365 0.943874 0.953376 0.96287 0.972354 0.981829 0.991293 1.00074 1.01018 1.01961 1.02902 1.03841 1.04779 1.05715 1.06649 1.07581 1.08511 1.09439 1.10364 1.11287 1.12207 1.13125 1.1404 1.14952 1.15861 1.16767 1.1767 1.1857 1.19466 1.20359 1.21248 1.22134 1.23016 1.23894 1.24768 1.25639 1.26505 1.27367 1.28225 1.29078 1.29927 1.30771 1.31611 1.32447 1.33277 1.34103 1.34923 1.35739 1.36549 1.37355 1.38155 1.3895 1.3974 1.40524 1.41303 1.42076 1.42843 1.43605 1.44361 1.45111 1.45855 1.46594 1.47326 1.48052 1.48772 1.49486 1.50193 1.50894 1.51589 1.52277 1.52958 1.53633 1.54301 1.54962 1.55616 1.56263 1.56903 1.57536 1.58162 1.5878 1.5939 1.59993 1.60588 1.61175 1.61755 
0.797476 0.807028 0.816581 0.826134 0.835687 0.845239 0.85479 0.864341 0.873889 0.883435 0.892979 0.902519 0.912056 0.921588 0.931114 0.940635 0.950149 0.959655 0.969152 0.978641 0.988119 0.997585 1.00704 1.01648 1.02591 1.03532 1.04472 1.05409 1.06345 1.0728 1.08212 1.09142 1.10069 1.10995 1.11917 1.12838 1.13755 1.1467 1.15582 1.16492 1.17398 1.18301 1.192 1.20096 1.20989 1.21879 1.22764 1.23646 1.24524 1.25399 1.26269 1.27135 1.27997 1.28855 1.29708 1.30557 1.31401 1.32241 1.33076 1.33907 1.34732 1.35553 1.36368 1.37179 1.37984 1.38784 1.39579 1.40369 1.41153 1.41931 1.42704 1.43472 1.44233 1.44989 1.45739 1.46483 1.47221 1.47953 1.48679 1.49399 1.50112 1.50819 1.5152 1.52214 1.52902 1.53583 1.54257 1.54924 1.55585 1.56238 1.56885 1.57524 1.58156 1.58781 1.59398 1.60008 1.6061 1.61204 1.61791 1.62369 
0.803543 0.813105 0.822668 0.83223 0.841792 0.851354 0.860914 0.870472 0.880029 0.889583 0.899134 0.908681 0.918224 0.927762 0.937294 0.946819 0.956338 0.965848 0.97535 0.984842 0.994323 1.00379 1.01325 1.02269 1.03212 1.04154 1.05093 1.06031 1.06967 1.07902 1.08834 1.09764 1.10691 1.11617 1.1254 1.1346 1.14378 1.15293 1.16205 1.17114 1.1802 1.18923 1.19822 1.20719 1.21611 1.22501 1.23386 1.24268 1.25146 1.2602 1.26891 1.27757 1.28619 1.29476 1.3033 1.31178 1.32023 1.32863 1.33698 1.34528 1.35353 1.36174 1.36989 1.378 1.38605 1.39405 1.402 1.40989 1.41773 1.42552 1.43325 1.44092 1.44853 1.45609 1.46359 1.47103 1.47841 1.48572 1.49298 1.50017 1.5073 1.51437 1.52137 1.52831 1.53518 1.54199 1.54872 1.55539 1.56199 1.56852 1.57498 1.58137 1.58768 1.59392 1.60009 1.60618 1.61219 1.61812 1.62398 1.62976 
0.809533 0.819104 0.828675 0.838246 0.847817 0.857387 0.866955 0.876521 0.886086 0.895647 0.905205 0.914758 0.924307 0.933851 0.943388 0.952919 0.962442 0.971957 0.981462 0.990957 1.00044 1.00991 1.01937 1.02882 1.03825 1.04767 1.05707 1.06645 1.07581 1.08515 1.09447 1.10377 1.11305 1.12231 1.13154 1.14074 1.14992 1.15906 1.16819 1.17728 1.18634 1.19536 1.20436 1.21332 1.22225 1.23114 1.24 1.24882 1.2576 1.26634 1.27504 1.2837 1.29232 1.3009 1.30943 1.31792 1.32636 1.33476 1.34311 1.35141 1.35966 1.36787 1.37602 1.38413 1.39218 1.40018 1.40813 1.41602 1.42386 1.43164 1.43937 1.44704 1.45465 1.46221 1.4697 1.47714 1.48451 1.49183 1.49908 1.50627 1.5134 1.52046 1.52746 1.5344 1.54126 1.54806 1.5548 1.56146 1.56806 1.57458 1.58103 1.58741 1.59372 1.59995 1.60611 1.61219 1.6182 1.62413 1.62998 1.63575 
0.815443 0.825022 0.834602 0.844182 0.85376 0.863338 0.872914 0.882488 0.892059 0.901627 0.911191 0.920751 0.930306 0.939855 0.949398 0.958933 0.968461 0.977979 0.987489 0.996987 1.00647 1.01595 1.02541 1.03486 1.04429 1.05371 1.06311 1.07249 1.08186 1.0912 1.10052 1.10983 1.1191 1.12836 1.13759 1.14679 1.15597 1.16512 1.17424 1.18333 1.19239 1.20142 1.21041 1.21938 1.2283 1.2372 1.24605 1.25487 1.26365 1.27239 1.28109 1.28975 1.29837 1.30695 1.31548 1.32397 1.33241 1.3408 1.34915 1.35746 1.36571 1.37391 1.38207 1.39017 1.39822 1.40622 1.41417 1.42206 1.4299 1.43768 1.4454 1.45307 1.46068 1.46824 1.47573 1.48316 1.49054 1.49785 1.5051 1.51229 1.51941 1.52647 1.53347 1.5404 1.54726 1.55406 1.56079 1.56745 1.57403 1.58055 1.587 1.59337 1.59968 1.6059 1.61206 1.61813 1.62413 1.63005 1.63589 1.64165 