# vtk DataFile Version 3.0
cell
ASCII
DATASET STRUCTURED_POINTS
DIMENSIONS 100 100 1
ORIGIN 0 0 0
SPACING 0.010000 0.010000 1
POINT_DATA 10000
SCALARS sample_scalars double
LOOKUP_TABLE default
0.557657 0.563959 0.572167 0.581139 0.590463 0.599971 0.609582 0.619257 0.62897 0.638708 0.64846 0.65822 0.667983 0.677745 0.687503 0.697255 0.706997 0.716729 0.726449 0.736154 0.745845 0.755518 0.765173 0.77481 0.784425 0.79402 0.803591 0.813139 0.822662 0.832159 0.84163 0.851072 0.860486 0.86987 0.879223 0.888544 0.897833 0.907088 0.916308 0.925493 0.934641 0.943752 0.952825 0.961858 0.970852 0.979804 0.988714 0.997582 1.00641 1.01519 1.02392 1.03261 1.04125 1.04984 1.05839 1.06688 1.07532 1.08372 1.09206 1.10034 1.10858 1.11676 1.12488 1.13295 1.14096 1.14892 1.15681 1.16465 1.17242 1.18014 1.1878 1.19539 1.20292 1.21039 1.21779 1.22513 1.2324 1.23961 1.24675 1.25383 1.26083 1.26777 1.27465 1.28145 1.28819 1.29486 1.30146 1.30799 1.31446 1.32086 1.3272 1.33348 1.3397 1.34589 1.35205 1.35821 1.36443 1.37084 1.37775 1.38601 
0.569452 0.575755 0.583411 0.591867 0.600789 0.609991 0.619368 0.628859 0.638426 0.648044 0.657697 0.667374 0.677066 0.686767 0.696473 0.706177 0.715879 0.725575 0.735261 0.744938 0.754602 0.764251 0.773885 0.783501 0.793099 0.802676 0.812232 0.821766 0.831276 0.840761 0.850221 0.859653 0.869057 0.878432 0.887777 0.897091 0.906373 0.915621 0.924835 0.934015 0.943158 0.952264 0.961333 0.970362 0.979352 0.988301 0.997209 1.00607 1.0149 1.02367 1.03241 1.04109 1.04973 1.05833 1.06687 1.07536 1.08381 1.0922 1.10055 1.10883 1.11707 1.12525 1.13338 1.14145 1.14947 1.15742 1.16532 1.17317 1.18095 1.18867 1.19633 1.20393 1.21147 1.21895 1.22636 1.23371 1.241 1.24822 1.25538 1.26247 1.26949 1.27646 1.28335 1.29018 1.29695 1.30365 1.31029 1.31687 1.32338 1.32985 1.33626 1.34263 1.34897 1.35529 1.36162 1.36801 1.37454 1.38134 1.38866 1.39691 
0.579285 0.586141 0.593798 0.602071 0.610776 0.619776 0.628979 0.638323 0.647767 0.657281 0.666846 0.676447 0.686074 0.695718 0.705373 0.715034 0.724696 0.734356 0.744012 0.75366 0.763298 0.772924 0.782537 0.792134 0.801713 0.811275 0.820816 0.830336 0.839833 0.849306 0.858755 0.868177 0.877571 0.886938 0.896275 0.905581 0.914856 0.924098 0.933306 0.94248 0.951618 0.96072 0.969784 0.97881 0.987797 0.996743 1.00565 1.01451 1.02333 1.03211 1.04084 1.04952 1.05816 1.06676 1.0753 1.08379 1.09224 1.10063 1.10898 1.11727 1.12551 1.13369 1.14182 1.14989 1.15791 1.16588 1.17378 1.18163 1.18941 1.19714 1.20481 1.21242 1.21997 1.22745 1.23488 1.24224 1.24954 1.25677 1.26394 1.27105 1.2781 1.28508 1.29199 1.29885 1.30564 1.31238 1.31905 1.32567 1.33224 1.33876 1.34524 1.35168 1.35811 1.36454 1.37101 1.37755 1.38423 1.39117 1.39849 1.40633 
0.588297 0.59567 0.60351 0.611783 0.620407 0.629297 0.638387 0.647625 0.656973 0.666402 0.675892 0.685427 0.694996 0.704588 0.714198 0.723818 0.733443 0.743071 0.752696 0.762317 0.771931 0.781535 0.791127 0.800705 0.810267 0.819813 0.829339 0.838846 0.84833 0.857792 0.86723 0.876642 0.886027 0.895385 0.904714 0.914013 0.923281 0.932517 0.941719 0.950888 0.960021 0.969118 0.978178 0.987201 0.996184 1.00513 1.01403 1.02289 1.03171 1.04048 1.04921 1.0579 1.06654 1.07513 1.08367 1.09217 1.10061 1.10901 1.11735 1.12564 1.13388 1.14207 1.1502 1.15828 1.1663 1.17427 1.18218 1.19003 1.19782 1.20556 1.21323 1.22085 1.2284 1.2359 1.24333 1.2507 1.25801 1.26526 1.27245 1.27957 1.28663 1.29363 1.30057 1.30745 1.31427 1.32104 1.32774 1.3344 1.34101 1.34758 1.35411 1.36062 1.36712 1.37363 1.38018 1.3868 1.39355 1.40048 1.40766 1.41511 
0.596897 0.604672 0.61273 0.621086 0.62971 0.638558 0.647585 0.656754 0.666033 0.675397 0.684826 0.694307 0.703825 0.713373 0.722941 0.732524 0.742116 0.751713 0.761311 0.770907 0.780497 0.79008 0.799652 0.809213 0.818759 0.828289 0.837801 0.847294 0.856767 0.866217 0.875645 0.885047 0.894424 0.903773 0.913094 0.922386 0.931647 0.940877 0.950074 0.959237 0.968365 0.977458 0.986514 0.995533 1.00451 1.01345 1.02235 1.03121 1.04003 1.0488 1.05753 1.06621 1.07485 1.08344 1.09198 1.10048 1.10893 1.11732 1.12567 1.13396 1.1422 1.15039 1.15853 1.16661 1.17463 1.1826 1.19052 1.19837 1.20617 1.21391 1.2216 1.22922 1.23678 1.24428 1.25173 1.25911 1.26643 1.27369 1.28089 1.28803 1.29511 1.30212 1.30908 1.31598 1.32283 1.32962 1.33636 1.34305 1.34969 1.3563 1.36288 1.36944 1.37599 1.38255 1.38914 1.39579 1.40254 1.40941 1.41642 1.42357 
0.605251 0.613333 0.621593 0.63006 0.638727 0.647575 0.656578 0.665708 0.674942 0.684259 0.693643 0.703079 0.712557 0.722066 0.731599 0.741149 0.750711 0.760281 0.769854 0.779426 0.788995 0.798557 0.808111 0.817655 0.827185 0.8367 0.846199 0.85568 0.865141 0.874581 0.883998 0.893391 0.902759 0.9121 0.921413 0.930698 0.939953 0.949176 0.958368 0.967526 0.97665 0.985738 0.99479 1.0038 1.01278 1.02172 1.03062 1.03947 1.04829 1.05706 1.06578 1.07447 1.0831 1.0917 1.10024 1.10873 1.11718 1.12558 1.13393 1.14222 1.15046 1.15866 1.16679 1.17488 1.18291 1.19088 1.1988 1.20666 1.21446 1.22221 1.2299 1.23753 1.2451 1.25261 1.26006 1.26745 1.27478 1.28205 1.28926 1.29642 1.30351 1.31054 1.31752 1.32444 1.33131 1.33812 1.34489 1.3516 1.35828 1.36492 1.37153 1.37812 1.3847 1.39129 1.3979 1.40456 1.41127 1.41805 1.42492 1.43183 
0.613438 0.621755 0.630191 0.638771 0.647502 0.656376 0.665378 0.674493 0.683701 0.692988 0.702338 0.711741 0.721186 0.730664 0.740167 0.749689 0.759225 0.76877 0.77832 0.787871 0.79742 0.806965 0.816502 0.826029 0.835545 0.845046 0.854532 0.864001 0.873451 0.88288 0.892288 0.901672 0.911031 0.920364 0.929671 0.938949 0.948197 0.957415 0.966601 0.975754 0.984873 0.993957 1.00301 1.01202 1.02099 1.02992 1.03882 1.04767 1.05648 1.06525 1.07398 1.08266 1.0913 1.09989 1.10843 1.11693 1.12538 1.13377 1.14212 1.15042 1.15866 1.16686 1.175 1.18308 1.19112 1.19909 1.20701 1.21488 1.22269 1.23044 1.23813 1.24577 1.25335 1.26087 1.26833 1.27573 1.28307 1.29035 1.29757 1.30474 1.31185 1.31889 1.32589 1.33283 1.33971 1.34654 1.35333 1.36007 1.36677 1.37343 1.38007 1.38668 1.39328 1.39988 1.40649 1.41312 1.41979 1.42649 1.43321 1.43995 
0.621497 0.629999 0.638582 0.647269 0.65607 0.664983 0.674003 0.683117 0.692315 0.701584 0.710913 0.720292 0.729712 0.739164 0.748643 0.758142 0.767655 0.777179 0.786709 0.796241 0.805772 0.8153 0.824821 0.834334 0.843835 0.853324 0.862798 0.872256 0.881695 0.891115 0.900513 0.909888 0.91924 0.928565 0.937865 0.947136 0.956378 0.96559 0.974771 0.983919 0.993034 1.00211 1.01116 1.02017 1.02914 1.03807 1.04696 1.05581 1.06462 1.07339 1.08211 1.0908 1.09943 1.10802 1.11656 1.12506 1.13351 1.14191 1.15026 1.15855 1.1668 1.175 1.18314 1.19123 1.19926 1.20724 1.21517 1.22304 1.23085 1.23861 1.24631 1.25395 1.26153 1.26906 1.27653 1.28394 1.29129 1.29858 1.30581 1.31299 1.32011 1.32717 1.33418 1.34113 1.34803 1.35488 1.36168 1.36844 1.37516 1.38184 1.38849 1.39511 1.40172 1.40832 1.41492 1.42152 1.42813 1.43475 1.44136 1.44796 
0.629451 0.638099 0.646807 0.65559 0.664461 0.67342 0.682466 0.691592 0.70079 0.710051 0.719368 0.728731 0.738133 0.747566 0.757026 0.766505 0.776 0.785505 0.795017 0.804533 0.814048 0.823561 0.833068 0.842567 0.852056 0.861533 0.870996 0.880443 0.889872 0.899282 0.908672 0.918039 0.927383 0.936702 0.945994 0.955259 0.964496 0.973702 0.982878 0.992021 1.00113 1.01021 1.01925 1.02825 1.03722 1.04615 1.05504 1.06389 1.0727 1.08146 1.09019 1.09887 1.1075 1.11609 1.12463 1.13313 1.14158 1.14998 1.15833 1.16663 1.17488 1.18307 1.19122 1.19931 1.20735 1.21533 1.22326 1.23113 1.23895 1.24671 1.25442 1.26206 1.26965 1.27719 1.28466 1.29208 1.29944 1.30674 1.31398 1.32117 1.3283 1.33537 1.34239 1.34936 1.35627 1.36313 1.36995 1.37672 1.38345 1.39014 1.3968 1.40343 1.41004 1.41663 1.4232 1.42977 1.43632 1.44287 1.44939 1.45588 
0.637311 0.64608 0.654892 0.663762 0.672698 0.681705 0.690782 0.699926 0.709132 0.718394 0.727706 0.737059 0.746449 0.755869 0.765314 0.774778 0.784257 0.793747 0.803244 0.812745 0.822247 0.831746 0.84124 0.850727 0.860205 0.869671 0.879124 0.888561 0.897981 0.907382 0.916764 0.926123 0.93546 0.944772 0.954058 0.963317 0.972548 0.981749 0.99092 1.00006 1.00916 1.01824 1.02727 1.03628 1.04524 1.05417 1.06305 1.0719 1.08071 1.08947 1.09819 1.10687 1.11551 1.1241 1.13264 1.14114 1.14958 1.15798 1.16634 1.17464 1.18289 1.19109 1.19923 1.20733 1.21537 1.22335 1.23129 1.23916 1.24698 1.25475 1.26246 1.27011 1.27771 1.28525 1.29273 1.30015 1.30752 1.31483 1.32208 1.32927 1.33641 1.3435 1.35053 1.3575 1.36443 1.3713 1.37813 1.38491 1.39164 1.39834 1.405 1.41163 1.41823 1.4248 1.43135 1.43788 1.44439 1.45087 1.45731 1.46371 
0.645086 0.653955 0.662856 0.671802 0.680799 0.689852 0.698963 0.70813 0.71735 0.726618 0.73593 0.74528 0.754662 0.764073 0.773507 0.782959 0.792426 0.801904 0.811389 0.820877 0.830367 0.839854 0.849337 0.858814 0.868281 0.877737 0.88718 0.896608 0.90602 0.915413 0.924787 0.934139 0.943469 0.952774 0.962054 0.971308 0.980533 0.98973 0.998896 1.00803 1.01713 1.0262 1.03524 1.04423 1.05319 1.06212 1.071 1.07985 1.08865 1.09742 1.10614 1.11482 1.12345 1.13204 1.14058 1.14908 1.15753 1.16593 1.17428 1.18258 1.19083 1.19903 1.20718 1.21528 1.22332 1.23131 1.23925 1.24713 1.25495 1.26272 1.27044 1.27809 1.28569 1.29324 1.30072 1.30815 1.31553 1.32284 1.3301 1.33731 1.34445 1.35154 1.35858 1.36557 1.3725 1.37938 1.38621 1.393 1.39974 1.40644 1.4131 1.41972 1.42631 1.43287 1.43939 1.44588 1.45234 1.45876 1.46514 1.47146 
0.652782 0.661734 0.670712 0.679724 0.688777 0.697876 0.707021 0.716213 0.725449 0.734727 0.744043 0.753394 0.762774 0.772179 0.781606 0.79105 0.800507 0.809975 0.81945 0.828928 0.838407 0.847885 0.857358 0.866824 0.876282 0.88573 0.895164 0.904584 0.913988 0.923374 0.93274 0.942086 0.951409 0.960708 0.969983 0.979231 0.988452 0.997643 1.0068 1.01594 1.02503 1.0341 1.04313 1.05212 1.06108 1.07 1.07889 1.08773 1.09653 1.1053 1.11402 1.12269 1.13133 1.13991 1.14846 1.15695 1.1654 1.1738 1.18216 1.19046 1.19871 1.20691 1.21506 1.22316 1.23121 1.2392 1.24714 1.25502 1.26285 1.27062 1.27834 1.286 1.29361 1.30116 1.30865 1.31609 1.32346 1.33079 1.33805 1.34526 1.35241 1.35951 1.36656 1.37355 1.38049 1.38737 1.39421 1.401 1.40774 1.41444 1.42109 1.42771 1.43428 1.44082 1.44732 1.45377 1.46019 1.46656 1.47288 1.47913 
0.6604 0.669425 0.678469 0.68754 0.696644 0.705784 0.714963 0.72418 0.733435 0.742726 0.75205 0.761404 0.770785 0.780188 0.78961 0.799049 0.8085 0.81796 0.827426 0.836896 0.846367 0.855836 0.8653 0.874759 0.884208 0.893648 0.903074 0.912487 0.921884 0.931263 0.940623 0.949962 0.959279 0.968573 0.977842 0.987085 0.996301 1.00549 1.01465 1.02377 1.03287 1.04193 1.05096 1.05995 1.06891 1.07782 1.08671 1.09555 1.10435 1.11311 1.12183 1.1305 1.13914 1.14772 1.15627 1.16476 1.17321 1.18161 1.18997 1.19827 1.20652 1.21473 1.22288 1.23098 1.23903 1.24702 1.25496 1.26285 1.27068 1.27846 1.28618 1.29384 1.30145 1.30901 1.3165 1.32394 1.33133 1.33865 1.34593 1.35314 1.3603 1.3674 1.37445 1.38145 1.38839 1.39528 1.40212 1.40891 1.41565 1.42234 1.42899 1.43559 1.44215 1.44867 1.45514 1.46157 1.46794 1.47427 1.48053 1.48673 
0.667944 0.677031 0.686133 0.695256 0.704406 0.713585 0.722796 0.732039 0.741314 0.75062 0.759954 0.769314 0.778697 0.788101 0.797522 0.806957 0.816403 0.825858 0.835318 0.844782 0.854245 0.863707 0.873164 0.882615 0.892058 0.90149 0.91091 0.920316 0.929706 0.939079 0.948433 0.957767 0.967079 0.976367 0.985632 0.99487 1.00408 1.01326 1.02242 1.03154 1.04063 1.04969 1.05872 1.06771 1.07666 1.08558 1.09445 1.10329 1.11209 1.12085 1.12957 1.13825 1.14688 1.15546 1.16401 1.1725 1.18095 1.18935 1.19771 1.20601 1.21427 1.22247 1.23062 1.23873 1.24678 1.25477 1.26272 1.2706 1.27844 1.28622 1.29394 1.30161 1.30923 1.31678 1.32428 1.33173 1.33912 1.34645 1.35372 1.36094 1.3681 1.37521 1.38226 1.38926 1.39621 1.4031 1.40994 1.41673 1.42346 1.43015 1.43679 1.44338 1.44993 1.45642 1.46287 1.46926 1.4756 1.48189 1.48811 1.49426 
0.675416 0.684556 0.693708 0.702878 0.71207 0.721285 0.730527 0.739795 0.749091 0.758412 0.767757 0.777125 0.786514 0.79592 0.805341 0.814775 0.824219 0.83367 0.843125 0.852584 0.862042 0.871498 0.880949 0.890394 0.89983 0.909257 0.91867 0.92807 0.937455 0.946822 0.956171 0.965499 0.974806 0.98409 0.99335 1.00258 1.01179 1.02097 1.03012 1.03924 1.04833 1.05738 1.06641 1.07539 1.08434 1.09326 1.10214 1.11097 1.11977 1.12853 1.13725 1.14592 1.15455 1.16314 1.17168 1.18018 1.18862 1.19703 1.20538 1.21369 1.22194 1.23015 1.2383 1.24641 1.25446 1.26245 1.2704 1.27829 1.28613 1.29391 1.30164 1.30931 1.31693 1.32449 1.33199 1.33944 1.34683 1.35417 1.36144 1.36867 1.37583 1.38294 1.39 1.397 1.40394 1.41083 1.41767 1.42446 1.43119 1.43787 1.4445 1.45108 1.45761 1.46408 1.4705 1.47687 1.48318 1.48943 1.49561 1.50172 
0.682814 0.692002 0.701199 0.710411 0.71964 0.728889 0.73816 0.747453 0.756768 0.766105 0.775463 0.78484 0.794235 0.803645 0.813069 0.822503 0.831946 0.841395 0.850847 0.860302 0.869756 0.879207 0.888654 0.898094 0.907525 0.916946 0.926354 0.935749 0.945129 0.954491 0.963835 0.973158 0.982461 0.99174 1.001 1.01023 1.01943 1.0286 1.03775 1.04687 1.05595 1.06501 1.07402 1.08301 1.09196 1.10087 1.10975 1.11858 1.12738 1.13614 1.14485 1.15352 1.16215 1.17074 1.17928 1.18778 1.19623 1.20463 1.21298 1.22129 1.22955 1.23775 1.24591 1.25401 1.26207 1.27007 1.27801 1.28591 1.29375 1.30153 1.30926 1.31694 1.32455 1.33212 1.33962 1.34707 1.35447 1.36181 1.36909 1.37631 1.38348 1.39059 1.39765 1.40465 1.41159 1.41848 1.42532 1.4321 1.43883 1.4455 1.45212 1.45869 1.4652 1.47165 1.47805 1.48439 1.49067 1.49689 1.50303 1.50911 
0.690142 0.699371 0.708608 0.717857 0.727121 0.736401 0.745698 0.755014 0.764349 0.773703 0.783074 0.792461 0.801864 0.811279 0.820706 0.830142 0.839585 0.849033 0.858484 0.867936 0.877387 0.886835 0.896278 0.905714 0.915141 0.924557 0.933961 0.943351 0.952726 0.962084 0.971424 0.980743 0.990042 0.999317 1.00857 1.0178 1.027 1.03617 1.04531 1.05442 1.06351 1.07256 1.08157 1.09056 1.0995 1.10841 1.11729 1.12612 1.13492 1.14367 1.15239 1.16106 1.16969 1.17827 1.18681 1.19531 1.20376 1.21216 1.22052 1.22882 1.23708 1.24529 1.25344 1.26155 1.2696 1.27761 1.28555 1.29345 1.30129 1.30908 1.31681 1.32449 1.33211 1.33967 1.34718 1.35463 1.36203 1.36937 1.37665 1.38388 1.39105 1.39816 1.40522 1.41222 1.41916 1.42605 1.43288 1.43965 1.44638 1.45304 1.45965 1.4662 1.4727 1.47913 1.48551 1.49183 1.49808 1.50427 1.51038 1.51642 
0.697397 0.706664 0.715937 0.72522 0.734515 0.743823 0.753146 0.762484 0.771838 0.781208 0.790592 0.79999 0.809401 0.818822 0.828254 0.837693 0.847137 0.856586 0.866036 0.875487 0.884936 0.894381 0.903821 0.913253 0.922677 0.93209 0.94149 0.950877 0.960248 0.969602 0.978937 0.988253 0.997548 1.00682 1.01607 1.02529 1.03449 1.04366 1.0528 1.06191 1.07099 1.08004 1.08905 1.09803 1.10698 1.11588 1.12476 1.13359 1.14238 1.15114 1.15985 1.16852 1.17715 1.18574 1.19428 1.20277 1.21122 1.21962 1.22798 1.23629 1.24454 1.25275 1.26091 1.26902 1.27707 1.28507 1.29302 1.30092 1.30876 1.31655 1.32428 1.33196 1.33959 1.34715 1.35466 1.36212 1.36951 1.37686 1.38414 1.39137 1.39854 1.40565 1.4127 1.4197 1.42664 1.43353 1.44036 1.44713 1.45384 1.46049 1.46709 1.47363 1.48011 1.48653 1.49289 1.49918 1.50541 1.51157 1.51766 1.52367 
0.704581 0.713881 0.723187 0.7325 0.741823 0.751158 0.760504 0.769864 0.779236 0.788621 0.798019 0.807428 0.816848 0.826276 0.835713 0.845155 0.854603 0.864052 0.873503 0.882954 0.892402 0.901845 0.911283 0.920713 0.930133 0.939543 0.948941 0.958324 0.967692 0.977042 0.986375 0.995687 1.00498 1.01425 1.02349 1.03271 1.04191 1.05107 1.06021 1.06932 1.0784 1.08744 1.09645 1.10543 1.11437 1.12328 1.13215 1.14098 1.14978 1.15853 1.16724 1.17591 1.18454 1.19313 1.20167 1.21016 1.21861 1.22701 1.23537 1.24367 1.25193 1.26014 1.2683 1.27641 1.28446 1.29247 1.30042 1.30832 1.31616 1.32395 1.33168 1.33936 1.34699 1.35456 1.36207 1.36952 1.37692 1.38426 1.39155 1.39877 1.40594 1.41306 1.42011 1.42711 1.43404 1.44093 1.44775 1.45451 1.46122 1.46786 1.47445 1.48098 1.48744 1.49385 1.50019 1.50646 1.51266 1.5188 1.52486 1.53085 
0.711694 0.721024 0.730359 0.7397 0.749049 0.758408 0.767776 0.777155 0.786545 0.795946 0.805356 0.814777 0.824205 0.833642 0.843084 0.852531 0.861981 0.871434 0.880886 0.890336 0.899784 0.909227 0.918663 0.928091 0.93751 0.946917 0.956312 0.965693 0.975058 0.984405 0.993735 1.00304 1.01233 1.0216 1.03084 1.04006 1.04925 1.05841 1.06755 1.07665 1.08573 1.09477 1.10378 1.11276 1.1217 1.13061 1.13948 1.14831 1.1571 1.16585 1.17456 1.18323 1.19186 1.20044 1.20898 1.21748 1.22593 1.23433 1.24268 1.25099 1.25925 1.26746 1.27562 1.28372 1.29178 1.29979 1.30774 1.31564 1.32348 1.33127 1.33901 1.34669 1.35431 1.36188 1.3694 1.37685 1.38425 1.39159 1.39888 1.4061 1.41327 1.42038 1.42743 1.43443 1.44136 1.44824 1.45506 1.46181 1.46851 1.47515 1.48172 1.48824 1.49469 1.50108 1.5074 1.51365 1.51984 1.52595 1.53199 1.53795 
0.718735 0.728092 0.737453 0.74682 0.756193 0.765574 0.774963 0.784361 0.793767 0.803183 0.812606 0.822037 0.831475 0.840919 0.850368 0.85982 0.869274 0.878729 0.888183 0.897635 0.907083 0.916525 0.925961 0.935388 0.944805 0.954211 0.963604 0.972982 0.982345 0.99169 1.00102 1.01032 1.01961 1.02887 1.03811 1.04733 1.05652 1.06568 1.07481 1.08392 1.09299 1.10203 1.11104 1.12001 1.12895 1.13786 1.14672 1.15555 1.16434 1.1731 1.18181 1.19047 1.1991 1.20768 1.21622 1.22472 1.23317 1.24157 1.24993 1.25823 1.26649 1.2747 1.28286 1.29097 1.29903 1.30703 1.31498 1.32288 1.33073 1.33852 1.34626 1.35394 1.36156 1.36913 1.37665 1.3841 1.3915 1.39884 1.40613 1.41335 1.42052 1.42763 1.43468 1.44167 1.4486 1.45547 1.46228 1.46903 1.47572 1.48235 1.48892 1.49542 1.50186 1.50823 1.51453 1.52077 1.52694 1.53303 1.53905 1.54499 
0.725703 0.735085 0.744471 0.75386 0.763256 0.772657 0.782066 0.791481 0.800903 0.810333 0.819769 0.829211 0.838658 0.84811 0.857566 0.867023 0.876482 0.88594 0.895396 0.90485 0.914298 0.923741 0.933177 0.942603 0.95202 0.961424 0.970815 0.980192 0.989553 0.998897 1.00822 1.01753 1.02681 1.03607 1.04531 1.05452 1.06371 1.07287 1.082 1.0911 1.10017 1.10921 1.11822 1.12719 1.13613 1.14503 1.1539 1.16273 1.17152 1.18027 1.18898 1.19764 1.20627 1.21485 1.22339 1.23189 1.24033 1.24874 1.25709 1.2654 1.27366 1.28187 1.29003 1.29814 1.30619 1.3142 1.32215 1.33005 1.3379 1.34569 1.35343 1.36111 1.36873 1.3763 1.38382 1.39127 1.39867 1.40601 1.4133 1.42052 1.42769 1.43479 1.44184 1.44883 1.45575 1.46262 1.46942 1.47617 1.48285 1.48947 1.49602 1.50251 1.50894 1.5153 1.52159 1.52781 1.53396 1.54003 1.54603 1.55195 
0.7326 0.742004 0.751411 0.760823 0.770238 0.779659 0.789085 0.798517 0.807954 0.817397 0.826845 0.836298 0.845755 0.855215 0.864677 0.87414 0.883603 0.893065 0.902525 0.91198 0.921431 0.930874 0.94031 0.949737 0.959153 0.968556 0.977947 0.987322 0.996681 1.00602 1.01535 1.02465 1.03393 1.04319 1.05243 1.06164 1.07082 1.07998 1.08911 1.09821 1.10728 1.11632 1.12532 1.13429 1.14323 1.15213 1.161 1.16982 1.17861 1.18736 1.19607 1.20474 1.21336 1.22195 1.23048 1.23898 1.24743 1.25583 1.26418 1.27249 1.28075 1.28896 1.29712 1.30523 1.31329 1.32129 1.32924 1.33714 1.34499 1.35278 1.36052 1.3682 1.37583 1.3834 1.39091 1.39837 1.40576 1.4131 1.42038 1.42761 1.43477 1.44187 1.44892 1.4559 1.46282 1.46969 1.47649 1.48322 1.4899 1.49651 1.50305 1.50953 1.51594 1.52229 1.52856 1.53477 1.5409 1.54696 1.55294 1.55884 
0.739423 0.748848 0.758276 0.767707 0.777141 0.786579 0.796022 0.805469 0.814921 0.824377 0.833837 0.8433 0.852766 0.862234 0.871703 0.881172 0.89064 0.900106 0.909569 0.919027 0.928479 0.937924 0.947361 0.956788 0.966203 0.975607 0.984997 0.994371 1.00373 1.01307 1.02239 1.03169 1.04097 1.05023 1.05947 1.06868 1.07786 1.08702 1.09614 1.10524 1.11431 1.12335 1.13235 1.14132 1.15026 1.15916 1.16802 1.17685 1.18563 1.19438 1.20309 1.21176 1.22038 1.22896 1.2375 1.24599 1.25444 1.26284 1.2712 1.27951 1.28776 1.29597 1.30413 1.31224 1.3203 1.32831 1.33626 1.34416 1.35201 1.3598 1.36753 1.37522 1.38284 1.39041 1.39792 1.40538 1.41278 1.42011 1.42739 1.43461 1.44178 1.44888 1.45592 1.4629 1.46981 1.47667 1.48346 1.49019 1.49686 1.50346 1.51 1.51646 1.52287 1.5292 1.53546 1.54165 1.54777 1.55381 1.55978 1.56566 
0.746173 0.755617 0.765064 0.774512 0.783964 0.793419 0.802878 0.812339 0.821805 0.831273 0.840744 0.850217 0.859692 0.869168 0.878644 0.888119 0.897592 0.907062 0.916528 0.925989 0.935444 0.944891 0.954328 0.963756 0.973172 0.982576 0.991965 1.00134 1.0107 1.02004 1.02936 1.03866 1.04794 1.05719 1.06643 1.07564 1.08482 1.09397 1.1031 1.1122 1.12126 1.1303 1.1393 1.14827 1.1572 1.1661 1.17496 1.18379 1.19258 1.20132 1.21003 1.2187 1.22732 1.2359 1.24444 1.25293 1.26138 1.26978 1.27814 1.28644 1.2947 1.30291 1.31107 1.31918 1.32724 1.33524 1.3432 1.3511 1.35894 1.36673 1.37447 1.38215 1.38978 1.39735 1.40486 1.41231 1.41971 1.42704 1.43432 1.44154 1.4487 1.4558 1.46283 1.46981 1.47672 1.48357 1.49036 1.49708 1.50374 1.51033 1.51686 1.52332 1.52971 1.53603 1.54228 1.54845 1.55456 1.56059 1.56654 1.57241 
0.752849 0.762311 0.771775 0.78124 0.790708 0.800178 0.809651 0.819127 0.828605 0.838085 0.847567 0.85705 0.866533 0.876017 0.8855 0.894981 0.904459 0.913934 0.923404 0.932868 0.942325 0.951773 0.961213 0.970642 0.980058 0.989462 0.998852 1.00823 1.01758 1.02692 1.03624 1.04554 1.05482 1.06408 1.07331 1.08251 1.0917 1.10085 1.10997 1.11907 1.12814 1.13717 1.14617 1.15514 1.16407 1.17297 1.18183 1.19066 1.19944 1.20819 1.21689 1.22556 1.23418 1.24276 1.2513 1.25979 1.26824 1.27664 1.285 1.2933 1.30156 1.30977 1.31793 1.32604 1.3341 1.3421 1.35005 1.35795 1.3658 1.37359 1.38133 1.38901 1.39663 1.4042 1.41171 1.41916 1.42656 1.43389 1.44117 1.44839 1.45554 1.46264 1.46967 1.47664 1.48355 1.49039 1.49717 1.50389 1.51054 1.51713 1.52364 1.53009 1.53647 1.54278 1.54902 1.55518 1.56127 1.56729 1.57322 1.57908 
0.759452 0.768929 0.778409 0.78789 0.797373 0.806857 0.816344 0.825832 0.835322 0.844813 0.854305 0.863798 0.87329 0.882781 0.892271 0.901758 0.911242 0.920721 0.930195 0.939662 0.949122 0.958573 0.968014 0.977444 0.986862 0.996266 1.00566 1.01503 1.02439 1.03373 1.04305 1.05235 1.06162 1.07088 1.08011 1.08931 1.09849 1.10765 1.11677 1.12587 1.13493 1.14396 1.15296 1.16193 1.17086 1.17976 1.18862 1.19744 1.20623 1.21497 1.22368 1.23235 1.24097 1.24955 1.25808 1.26658 1.27502 1.28342 1.29178 1.30008 1.30834 1.31655 1.32471 1.33282 1.34088 1.34888 1.35683 1.36473 1.37258 1.38037 1.3881 1.39578 1.40341 1.41098 1.41848 1.42594 1.43333 1.44066 1.44794 1.45515 1.4623 1.46939 1.47642 1.48339 1.49029 1.49713 1.50391 1.51062 1.51726 1.52384 1.53034 1.53678 1.54315 1.54945 1.55568 1.56183 1.56791 1.57391 1.57984 1.58568 
0.765979 0.775472 0.784966 0.794461 0.803958 0.813456 0.822955 0.832456 0.841957 0.851459 0.860961 0.870462 0.879963 0.889461 0.898958 0.908451 0.91794 0.927423 0.936901 0.946372 0.955835 0.965288 0.974731 0.984163 0.993582 1.00299 1.01238 1.02175 1.03111 1.04045 1.04977 1.05907 1.06834 1.0776 1.08683 1.09603 1.10521 1.11436 1.12349 1.13258 1.14164 1.15068 1.15968 1.16864 1.17757 1.18647 1.19533 1.20415 1.21294 1.22168 1.23039 1.23905 1.24767 1.25625 1.26479 1.27328 1.28173 1.29013 1.29848 1.30679 1.31504 1.32325 1.33141 1.33952 1.34758 1.35558 1.36353 1.37143 1.37928 1.38707 1.3948 1.40248 1.4101 1.41767 1.42518 1.43263 1.44002 1.44735 1.45462 1.46183 1.46898 1.47607 1.48309 1.49006 1.49695 1.50379 1.51056 1.51726 1.5239 1.53047 1.53697 1.5434 1.54976 1.55605 1.56226 1.5684 1.57447 1.58046 1.58637 1.59221 
0.772431 0.781938 0.791445 0.800954 0.810464 0.819975 0.829486 0.838998 0.84851 0.858021 0.867533 0.877043 0.886551 0.896057 0.90556 0.915059 0.924553 0.934042 0.943523 0.952998 0.962463 0.971919 0.981365 0.990798 1.00022 1.00963 1.01902 1.02839 1.03775 1.04709 1.05641 1.06571 1.07498 1.08424 1.09347 1.10267 1.11185 1.121 1.13012 1.13922 1.14828 1.15731 1.16631 1.17527 1.1842 1.1931 1.20196 1.21078 1.21957 1.22831 1.23701 1.24568 1.2543 1.26288 1.27141 1.2799 1.28835 1.29675 1.3051 1.31341 1.32167 1.32987 1.33803 1.34614 1.3542 1.3622 1.37015 1.37805 1.38589 1.39368 1.40142 1.4091 1.41672 1.42428 1.43179 1.43924 1.44662 1.45395 1.46122 1.46843 1.47558 1.48266 1.48968 1.49664 1.50353 1.51036 1.51713 1.52382 1.53045 1.53701 1.54351 1.54993 1.55628 1.56256 1.56876 1.5749 1.58095 1.58693 1.59283 1.59866 
0.778807 0.788327 0.797847 0.807369 0.81689 0.826413 0.835935 0.845458 0.85498 0.864501 0.874021 0.88354 0.893056 0.902569 0.912078 0.921582 0.931082 0.940575 0.950061 0.959539 0.969008 0.978466 0.987914 0.997349 1.00677 1.01618 1.02557 1.03495 1.04431 1.05364 1.06296 1.07226 1.08154 1.09079 1.10002 1.10923 1.1184 1.12755 1.13668 1.14577 1.15483 1.16386 1.17286 1.18182 1.19076 1.19965 1.20851 1.21733 1.22611 1.23486 1.24356 1.25222 1.26084 1.26942 1.27796 1.28645 1.29489 1.30329 1.31165 1.31995 1.32821 1.33641 1.34457 1.35268 1.36074 1.36874 1.37669 1.38459 1.39243 1.40022 1.40795 1.41563 1.42325 1.43081 1.43832 1.44576 1.45315 1.46048 1.46774 1.47495 1.48209 1.48917 1.49619 1.50314 1.51003 1.51685 1.52361 1.5303 1.53693 1.54348 1.54997 1.55638 1.56272 1.56899 1.57519 1.58131 1.58736 1.59333 1.59922 1.60503 
0.785107 0.794639 0.804171 0.813704 0.823237 0.83277 0.842303 0.851836 0.861367 0.870898 0.880426 0.889953 0.899476 0.908996 0.918511 0.928022 0.937526 0.947024 0.956514 0.965995 0.975467 0.984929 0.994379 1.00382 1.01324 1.02265 1.03204 1.04142 1.05078 1.06012 1.06944 1.07874 1.08801 1.09727 1.1065 1.1157 1.12488 1.13403 1.14315 1.15224 1.1613 1.17033 1.17933 1.18829 1.19722 1.20612 1.21498 1.2238 1.23258 1.24132 1.25003 1.25869 1.26731 1.27589 1.28442 1.29291 1.30136 1.30975 1.31811 1.32641 1.33467 1.34287 1.35103 1.35914 1.36719 1.3752 1.38315 1.39104 1.39889 1.40667 1.4144 1.42208 1.4297 1.43726 1.44476 1.45221 1.45959 1.46692 1.47418 1.48138 1.48852 1.4956 1.50261 1.50956 1.51645 1.52326 1.53002 1.5367 1.54332 1.54987 1.55634 1.56275 1.56908 1.57535 1.58153 1.58765 1.59368 1.59964 1.60553 1.61133 
0.79133 0.800873 0.810416 0.81996 0.829504 0.839047 0.84859 0.858132 0.867673 0.877212 0.886748 0.896282 0.905812 0.915339 0.92486 0.934376 0.943885 0.953388 0.962882 0.972367 0.981842 0.991307 1.00076 1.0102 1.01962 1.02904 1.03843 1.04781 1.05717 1.06651 1.07583 1.08513 1.0944 1.10366 1.11289 1.12209 1.13127 1.14042 1.14954 1.15863 1.16769 1.17672 1.18572 1.19468 1.20361 1.2125 1.22136 1.23018 1.23896 1.24771 1.25641 1.26507 1.27369 1.28227 1.2908 1.29929 1.30774 1.31613 1.32449 1.33279 1.34105 1.34925 1.35741 1.36551 1.37357 1.38157 1.38952 1.39742 1.40526 1.41304 1.42077 1.42845 1.43607 1.44363 1.45113 1.45857 1.46595 1.47327 1.48053 1.48773 1.49487 1.50194 1.50895 1.5159 1.52278 1.52959 1.53634 1.54302 1.54963 1.55617 1.56264 1.56904 1.57537 1.58162 1.5878 1.5939 1.59993 1.60588 1.61176 1.61755 
0.797476 0.807029 0.816583 0.826137 0.83569 0.845243 0.854795 0.864346 0.873895 0.883442 0.892987 0.902528 0.912065 0.921597 0.931124 0.940646 0.95016 0.959667 0.969165 0.978654 0.988132 0.997599 1.00705 1.0165 1.02592 1.03534 1.04473 1.05411 1.06347 1.07281 1.08213 1.09143 1.10071 1.10997 1.11919 1.1284 1.13757 1.14672 1.15585 1.16494 1.174 1.18303 1.19202 1.20099 1.20992 1.21881 1.22767 1.23649 1.24527 1.25401 1.26271 1.27137 1.27999 1.28857 1.2971 1.30559 1.31403 1.32243 1.33078 1.33909 1.34734 1.35555 1.3637 1.37181 1.37986 1.38786 1.39581 1.40371 1.41155 1.41933 1.42706 1.43473 1.44235 1.44991 1.45741 1.46485 1.47223 1.47955 1.48681 1.494 1.50114 1.50821 1.51521 1.52215 1.52903 1.53584 1.54258 1.54925 1.55586 1.56239 1.56885 1.57525 1.58157 1.58781 1.59399 1.60008 1.6061 1.61204 1.61791 1.62369 
0.803544 0.813107 0.82267 0.832233 0.841796 0.851358 0.860919 0.870478 0.880035 0.88959 0.899141 0.908689 0.918233 0.927771 0.937304 0.94683 0.956349 0.965861 0.975363 0.984855 0.994337 1.00381 1.01326 1.02271 1.03214 1.04155 1.05095 1.06033 1.06969 1.07903 1.08836 1.09766 1.10693 1.11619 1.12542 1.13462 1.1438 1.15295 1.16207 1.17116 1.18022 1.18925 1.19825 1.20721 1.21614 1.22503 1.23389 1.2427 1.25149 1.26023 1.26893 1.27759 1.28621 1.29479 1.30332 1.31181 1.32025 1.32865 1.337 1.3453 1.35356 1.36176 1.36992 1.37802 1.38607 1.39407 1.40202 1.40991 1.41775 1.42554 1.43327 1.44094 1.44855 1.45611 1.46361 1.47104 1.47842 1.48574 1.49299 1.50019 1.50732 1.51438 1.52139 1.52832 1.53519 1.542 1.54873 1.5554 1.562 1.56853 1.57499 1.58137 1.58769 1.59393 1.60009 1.60618 1.61219 1.61813 1.62398 1.62976 
0.809533 0.819105 0.828677 0.838249 0.847821 0.857391 0.86696 0.876527 0.886092 0.895654 0.905212 0.914767 0.924316 0.933861 0.943399 0.95293 0.962454 0.971969 0.981475 0.990971 1.00046 1.00993 1.01939 1.02884 1.03827 1.04768 1.05708 1.06646 1.07583 1.08517 1.09449 1.10379 1.11307 1.12233 1.13156 1.14076 1.14994 1.15909 1.16821 1.1773 1.18636 1.19539 1.20438 1.21335 1.22227 1.23117 1.24002 1.24884 1.25762 1.26636 1.27506 1.28372 1.29234 1.30092 1.30945 1.31794 1.32638 1.33478 1.34313 1.35143 1.35969 1.36789 1.37604 1.38415 1.3922 1.4002 1.40815 1.41604 1.42388 1.43166 1.43939 1.44706 1.45467 1.46222 1.46972 1.47715 1.48453 1.49184 1.4991 1.50629 1.51341 1.52048 1.52748 1.53441 1.54128 1.54808 1.55481 1.56147 1.56806 1.57459 1.58104 1.58742 1.59373 1.59996 1.60612 1.6122 1.6182 1.62413 1.62998 1.63575 
0.815444 0.825024 0.834604 0.844185 0.853764 0.863342 0.872919 0.882494 0.892066 0.901634 0.911199 0.92076 0.930315 0.939865 0.949408 0.958944 0.968473 0.977992 0.987502 0.997001 1.00649 1.01597 1.02543 1.03488 1.04431 1.05373 1.06313 1.07251 1.08188 1.09122 1.10054 1.10985 1.11912 1.12838 1.13761 1.14681 1.15599 1.16514 1.17426 1.18335 1.19241 1.20144 1.21044 1.2194 1.22833 1.23722 1.24608 1.25489 1.26367 1.27241 1.28112 1.28978 1.29839 1.30697 1.3155 1.32399 1.33243 1.34083 1.34918 1.35748 1.36573 1.37393 1.38209 1.39019 1.39824 1.40624 1.41419 1.42208 1.42991 1.4377 1.44542 1.45309 1.4607 1.46825 1.47575 1.48318 1.49055 1.49787 1.50512 1.5123 1.51943 1.52649 1.53348 1.54041 1.54727 1.55407 1.5608 1.56745 1.57404 1.58056 1.58701 1.59338 1.59968 1.60591 1.61206 1.61813 1.62413 1.63005 1.63589 1.64165 