# vtk DataFile Version 3.0
cell
ASCII
DATASET STRUCTURED_POINTS
DIMENSIONS 100 100 1
ORIGIN 0 0 0
SPACING 0.010000 0.010000 1
POINT_DATA 10000
SCALARS sample_scalars double
LOOKUP_TABLE default
0.557657 0.563959 0.572167 0.581139 0.590463 0.599971 0.609582 0.619257 0.62897 0.638708 0.64846 0.65822 0.667983 0.677746 0.687504 0.697255 0.706998 0.71673 0.726449 0.736155 0.745845 0.755518 0.765174 0.77481 0.784426 0.79402 0.803592 0.813139 0.822663 0.83216 0.84163 0.851073 0.860487 0.86987 0.879224 0.888545 0.897833 0.907088 0.916309 0.925493 0.934642 0.943753 0.952825 0.961859 0.970852 0.979804 0.988715 0.997583 1.00641 1.01519 1.02392 1.03261 1.04125 1.04984 1.05839 1.06688 1.07532 1.08372 1.09206 1.10034 1.10858 1.11676 1.12488 1.13295 1.14096 1.14892 1.15681 1.16465 1.17242 1.18014 1.1878 1.19539 1.20292 1.21039 1.21779 1.22513 1.2324 1.23961 1.24675 1.25383 1.26083 1.26778 1.27465 1.28145 1.28819 1.29486 1.30146 1.30799 1.31446 1.32086 1.3272 1.33348 1.3397 1.34589 1.35205 1.35821 1.36443 1.37084 1.37775 1.38601 
0.569452 0.575755 0.583411 0.591867 0.600789 0.609991 0.619368 0.628859 0.638426 0.648044 0.657697 0.667374 0.677067 0.686768 0.696473 0.706178 0.715879 0.725575 0.735262 0.744938 0.754602 0.764252 0.773885 0.783502 0.793099 0.802677 0.812233 0.821767 0.831277 0.840762 0.850221 0.859654 0.869058 0.878433 0.887778 0.897092 0.906373 0.915622 0.924836 0.934015 0.943159 0.952265 0.961333 0.970363 0.979353 0.988302 0.99721 1.00608 1.0149 1.02368 1.03241 1.04109 1.04973 1.05833 1.06687 1.07537 1.08381 1.0922 1.10055 1.10884 1.11707 1.12525 1.13338 1.14145 1.14947 1.15742 1.16532 1.17317 1.18095 1.18867 1.19633 1.20393 1.21147 1.21895 1.22636 1.23371 1.241 1.24822 1.25538 1.26247 1.2695 1.27646 1.28335 1.29018 1.29695 1.30365 1.31029 1.31687 1.32339 1.32985 1.33626 1.34263 1.34897 1.35529 1.36162 1.36801 1.37454 1.38134 1.38866 1.39691 
0.579286 0.586141 0.593798 0.602071 0.610776 0.619776 0.62898 0.638324 0.647767 0.657281 0.666846 0.676447 0.686074 0.695718 0.705373 0.715034 0.724697 0.734357 0.744013 0.753661 0.763299 0.772925 0.782537 0.792134 0.801714 0.811275 0.820817 0.830337 0.839834 0.849307 0.858756 0.868178 0.877573 0.886939 0.896276 0.905582 0.914857 0.924099 0.933307 0.942481 0.951619 0.960721 0.969785 0.978811 0.987798 0.996744 1.00565 1.01451 1.02333 1.03211 1.04084 1.04953 1.05816 1.06676 1.0753 1.0838 1.09224 1.10064 1.10898 1.11727 1.12551 1.13369 1.14182 1.1499 1.15791 1.16588 1.17378 1.18163 1.18942 1.19714 1.20481 1.21242 1.21997 1.22745 1.23488 1.24224 1.24954 1.25677 1.26394 1.27105 1.2781 1.28508 1.292 1.29885 1.30565 1.31238 1.31905 1.32567 1.33224 1.33876 1.34524 1.35168 1.35811 1.36454 1.37101 1.37755 1.38424 1.39117 1.39849 1.40633 
0.588297 0.59567 0.60351 0.611784 0.620407 0.629298 0.638388 0.647626 0.656973 0.666402 0.675892 0.685428 0.694996 0.704589 0.714198 0.723818 0.733444 0.743072 0.752697 0.762318 0.771932 0.781536 0.791128 0.800706 0.810269 0.819814 0.82934 0.838847 0.848332 0.857793 0.867231 0.876643 0.886029 0.895387 0.904716 0.914014 0.923282 0.932518 0.941721 0.950889 0.960023 0.96912 0.97818 0.987202 0.996185 1.00513 1.01403 1.02289 1.03171 1.04048 1.04921 1.0579 1.06654 1.07513 1.08367 1.09217 1.10061 1.10901 1.11735 1.12565 1.13389 1.14207 1.15021 1.15828 1.1663 1.17427 1.18218 1.19003 1.19783 1.20556 1.21324 1.22085 1.22841 1.2359 1.24333 1.2507 1.25801 1.26526 1.27245 1.27957 1.28663 1.29363 1.30057 1.30745 1.31427 1.32104 1.32775 1.3344 1.34101 1.34758 1.35411 1.36062 1.36712 1.37363 1.38018 1.3868 1.39355 1.40048 1.40766 1.41511 
0.596897 0.604672 0.61273 0.621086 0.62971 0.638558 0.647586 0.656754 0.666033 0.675397 0.684827 0.694307 0.703826 0.713374 0.722942 0.732525 0.742117 0.751714 0.761313 0.770908 0.780499 0.790081 0.799654 0.809214 0.81876 0.82829 0.837803 0.847296 0.856769 0.866219 0.875646 0.885049 0.894425 0.903775 0.913096 0.922388 0.931649 0.940878 0.950075 0.959239 0.968367 0.97746 0.986516 0.995535 1.00451 1.01345 1.02235 1.03121 1.04003 1.0488 1.05753 1.06621 1.07485 1.08344 1.09199 1.10048 1.10893 1.11732 1.12567 1.13396 1.14221 1.1504 1.15853 1.16661 1.17464 1.18261 1.19052 1.19838 1.20617 1.21392 1.2216 1.22922 1.23678 1.24429 1.25173 1.25911 1.26643 1.27369 1.28089 1.28803 1.29511 1.30212 1.30908 1.31598 1.32283 1.32962 1.33636 1.34305 1.34969 1.3563 1.36288 1.36944 1.37599 1.38255 1.38914 1.39579 1.40254 1.40941 1.41642 1.42357 
0.605251 0.613333 0.621594 0.63006 0.638728 0.647576 0.656578 0.665708 0.674942 0.68426 0.693644 0.70308 0.712558 0.722067 0.7316 0.74115 0.750713 0.760282 0.769855 0.779427 0.788996 0.798559 0.808113 0.817656 0.827187 0.836702 0.846201 0.855682 0.865143 0.874583 0.884 0.893393 0.902761 0.912102 0.921416 0.9307 0.939955 0.949179 0.95837 0.967528 0.976652 0.98574 0.994792 1.00381 1.01278 1.02172 1.03062 1.03947 1.04829 1.05706 1.06579 1.07447 1.08311 1.0917 1.10024 1.10874 1.11718 1.12558 1.13393 1.14222 1.15047 1.15866 1.1668 1.17488 1.18291 1.19088 1.1988 1.20666 1.21446 1.22221 1.2299 1.23753 1.2451 1.25261 1.26006 1.26745 1.27478 1.28205 1.28927 1.29642 1.30351 1.31055 1.31752 1.32444 1.33131 1.33812 1.34489 1.3516 1.35828 1.36492 1.37153 1.37812 1.3847 1.39129 1.39791 1.40456 1.41127 1.41806 1.42492 1.43183 
0.613438 0.621755 0.630191 0.638771 0.647502 0.656376 0.665379 0.674493 0.683702 0.692988 0.702339 0.711742 0.721187 0.730665 0.740168 0.749691 0.759227 0.768772 0.778322 0.787873 0.797422 0.806966 0.816504 0.826031 0.835547 0.845048 0.854534 0.864003 0.873453 0.882882 0.89229 0.901674 0.911033 0.920367 0.929673 0.938951 0.9482 0.957417 0.966603 0.975756 0.984875 0.99396 1.00301 1.01202 1.02099 1.02993 1.03882 1.04768 1.05649 1.06526 1.07398 1.08266 1.0913 1.09989 1.10844 1.11693 1.12538 1.13378 1.14212 1.15042 1.15867 1.16686 1.175 1.18309 1.19112 1.1991 1.20702 1.21488 1.22269 1.23044 1.23814 1.24577 1.25335 1.26087 1.26833 1.27573 1.28307 1.29035 1.29758 1.30474 1.31185 1.3189 1.32589 1.33283 1.33971 1.34655 1.35333 1.36007 1.36677 1.37343 1.38007 1.38668 1.39328 1.39988 1.40649 1.41312 1.41979 1.42649 1.43321 1.43995 
0.621498 0.629999 0.638582 0.647269 0.65607 0.664984 0.674003 0.683118 0.692316 0.701585 0.710914 0.720293 0.729713 0.739166 0.748645 0.758143 0.767657 0.777181 0.78671 0.796243 0.805774 0.815302 0.824823 0.834336 0.843838 0.853327 0.862801 0.872258 0.881698 0.891117 0.900515 0.909891 0.919242 0.928568 0.937868 0.947139 0.956381 0.965593 0.974774 0.983922 0.993037 1.00212 1.01116 1.02017 1.02914 1.03807 1.04696 1.05582 1.06463 1.07339 1.08212 1.0908 1.09943 1.10802 1.11657 1.12506 1.13351 1.14191 1.15026 1.15856 1.1668 1.175 1.18314 1.19123 1.19927 1.20725 1.21517 1.22304 1.23085 1.23861 1.24631 1.25395 1.26154 1.26906 1.27653 1.28394 1.29129 1.29858 1.30582 1.31299 1.32011 1.32717 1.33418 1.34113 1.34803 1.35488 1.36169 1.36844 1.37516 1.38184 1.38849 1.39512 1.40172 1.40832 1.41492 1.42152 1.42813 1.43475 1.44136 1.44796 
0.629451 0.6381 0.646807 0.655591 0.664461 0.673421 0.682466 0.691592 0.700791 0.710052 0.719369 0.728732 0.738134 0.747568 0.757027 0.766507 0.776002 0.785507 0.795019 0.804535 0.81405 0.823563 0.83307 0.842569 0.852059 0.861536 0.870999 0.880446 0.889875 0.899285 0.908675 0.918042 0.927386 0.936705 0.945997 0.955262 0.964499 0.973706 0.982881 0.992025 1.00114 1.01021 1.01925 1.02826 1.03722 1.04615 1.05504 1.06389 1.0727 1.08147 1.09019 1.09887 1.1075 1.11609 1.12464 1.13313 1.14158 1.14998 1.15833 1.16663 1.17488 1.18308 1.19122 1.19931 1.20735 1.21533 1.22326 1.23114 1.23895 1.24672 1.25442 1.26207 1.26966 1.27719 1.28466 1.29208 1.29944 1.30674 1.31398 1.32117 1.3283 1.33537 1.34239 1.34936 1.35627 1.36314 1.36995 1.37672 1.38345 1.39014 1.3968 1.40343 1.41004 1.41663 1.4232 1.42977 1.43632 1.44287 1.44939 1.45588 
0.637311 0.64608 0.654892 0.663762 0.672698 0.681705 0.690783 0.699927 0.709134 0.718396 0.727707 0.737061 0.746451 0.755871 0.765316 0.77478 0.784259 0.793749 0.803247 0.812748 0.822249 0.831749 0.841243 0.85073 0.860208 0.869674 0.879127 0.888564 0.897984 0.907386 0.916767 0.926127 0.935463 0.944775 0.954061 0.96332 0.972551 0.981753 0.990923 1.00006 1.00917 1.01824 1.02728 1.03628 1.04524 1.05417 1.06306 1.07191 1.08071 1.08948 1.0982 1.10688 1.11551 1.1241 1.13264 1.14114 1.14959 1.15799 1.16634 1.17464 1.18289 1.19109 1.19924 1.20733 1.21537 1.22336 1.23129 1.23917 1.24699 1.25475 1.26246 1.27012 1.27771 1.28525 1.29273 1.30015 1.30752 1.31483 1.32208 1.32928 1.33642 1.3435 1.35053 1.3575 1.36443 1.3713 1.37813 1.38491 1.39164 1.39834 1.405 1.41163 1.41823 1.4248 1.43136 1.43788 1.44439 1.45087 1.45731 1.46371 
0.645086 0.653955 0.662857 0.671802 0.680799 0.689853 0.698964 0.708131 0.717351 0.726619 0.735931 0.745281 0.754664 0.764075 0.773509 0.782962 0.792429 0.801906 0.811391 0.82088 0.83037 0.839857 0.84934 0.858817 0.868284 0.87774 0.887183 0.896612 0.906023 0.915417 0.92479 0.934143 0.943472 0.952778 0.962058 0.971312 0.980537 0.989734 0.9989 1.00803 1.01714 1.02621 1.03524 1.04424 1.0532 1.06212 1.07101 1.07985 1.08866 1.09742 1.10614 1.11482 1.12345 1.13204 1.14059 1.14908 1.15753 1.16593 1.17428 1.18258 1.19084 1.19904 1.20718 1.21528 1.22332 1.23131 1.23925 1.24713 1.25495 1.26272 1.27044 1.2781 1.2857 1.29324 1.30073 1.30816 1.31553 1.32285 1.33011 1.33731 1.34445 1.35155 1.35858 1.36557 1.3725 1.37938 1.38621 1.393 1.39974 1.40644 1.4131 1.41972 1.42631 1.43287 1.43939 1.44588 1.45234 1.45876 1.46514 1.47146 
0.652782 0.661735 0.670713 0.679725 0.688778 0.697876 0.707022 0.716214 0.72545 0.734729 0.744045 0.753395 0.762775 0.772181 0.781608 0.791052 0.80051 0.809978 0.819452 0.828931 0.83841 0.847888 0.857361 0.866828 0.876286 0.885733 0.895168 0.904588 0.913992 0.923378 0.932744 0.94209 0.951413 0.960713 0.969987 0.979235 0.988456 0.997648 1.00681 1.01594 1.02504 1.0341 1.04313 1.05213 1.06109 1.07001 1.07889 1.08774 1.09654 1.1053 1.11402 1.1227 1.13133 1.13992 1.14846 1.15696 1.16541 1.17381 1.18216 1.19046 1.19872 1.20692 1.21507 1.22317 1.23121 1.2392 1.24714 1.25503 1.26285 1.27063 1.27835 1.28601 1.29361 1.30116 1.30865 1.31609 1.32347 1.33079 1.33805 1.34526 1.35242 1.35952 1.36656 1.37355 1.38049 1.38737 1.39421 1.401 1.40774 1.41444 1.4211 1.42771 1.43428 1.44082 1.44732 1.45378 1.46019 1.46656 1.47288 1.47913 
0.6604 0.669425 0.678469 0.68754 0.696644 0.705785 0.714964 0.724181 0.733437 0.742728 0.752052 0.761406 0.770787 0.78019 0.789613 0.799051 0.808502 0.817963 0.827429 0.836899 0.84637 0.855839 0.865304 0.874762 0.884212 0.893651 0.903078 0.912491 0.921888 0.931267 0.940627 0.949966 0.959284 0.968578 0.977847 0.98709 0.996306 1.00549 1.01465 1.02378 1.03287 1.04193 1.05096 1.05995 1.06891 1.07783 1.08671 1.09555 1.10435 1.11311 1.12183 1.13051 1.13914 1.14773 1.15627 1.16477 1.17322 1.18162 1.18997 1.19827 1.20653 1.21473 1.22288 1.23098 1.23903 1.24702 1.25497 1.26285 1.27068 1.27846 1.28618 1.29385 1.30146 1.30901 1.31651 1.32395 1.33133 1.33866 1.34593 1.35314 1.3603 1.3674 1.37445 1.38145 1.38839 1.39528 1.40212 1.40891 1.41565 1.42234 1.42899 1.4356 1.44216 1.44867 1.45514 1.46157 1.46794 1.47427 1.48053 1.48673 
0.667945 0.677031 0.686133 0.695257 0.704407 0.713586 0.722797 0.732041 0.741316 0.750622 0.759956 0.769316 0.7787 0.788103 0.797524 0.80696 0.816406 0.825861 0.835321 0.844785 0.854249 0.86371 0.873168 0.882619 0.892062 0.901494 0.910914 0.92032 0.929711 0.939084 0.948438 0.957772 0.967084 0.976372 0.985637 0.994875 1.00409 1.01327 1.02242 1.03155 1.04064 1.0497 1.05872 1.06771 1.07666 1.08558 1.09446 1.1033 1.1121 1.12086 1.12958 1.13825 1.14688 1.15547 1.16401 1.17251 1.18096 1.18936 1.19771 1.20602 1.21427 1.22248 1.23063 1.23873 1.24678 1.25478 1.26272 1.27061 1.27844 1.28622 1.29395 1.30162 1.30923 1.31679 1.32429 1.33173 1.33912 1.34645 1.35373 1.36094 1.36811 1.37521 1.38227 1.38927 1.39621 1.4031 1.40994 1.41673 1.42347 1.43015 1.43679 1.44339 1.44993 1.45642 1.46287 1.46926 1.47561 1.48189 1.48811 1.49426 
0.675416 0.684556 0.693709 0.702879 0.712071 0.721286 0.730528 0.739797 0.749092 0.758414 0.767759 0.777128 0.786516 0.795922 0.805344 0.814778 0.824222 0.833673 0.843129 0.852587 0.862045 0.871501 0.880953 0.890398 0.899835 0.909261 0.918675 0.928075 0.93746 0.946827 0.956176 0.965504 0.974811 0.984095 0.993355 1.00259 1.0118 1.02098 1.03013 1.03925 1.04833 1.05739 1.06641 1.0754 1.08435 1.09326 1.10214 1.11098 1.11978 1.12854 1.13725 1.14593 1.15456 1.16314 1.17169 1.18018 1.18863 1.19703 1.20539 1.21369 1.22195 1.23015 1.23831 1.24641 1.25446 1.26246 1.27041 1.2783 1.28613 1.29392 1.30164 1.30932 1.31693 1.32449 1.332 1.33944 1.34683 1.35417 1.36145 1.36867 1.37583 1.38294 1.39 1.397 1.40394 1.41084 1.41767 1.42446 1.43119 1.43787 1.4445 1.45108 1.45761 1.46408 1.47051 1.47687 1.48318 1.48943 1.49561 1.50172 
0.682815 0.692002 0.7012 0.710412 0.719641 0.72889 0.738161 0.747454 0.75677 0.766107 0.775465 0.784843 0.794238 0.803648 0.813072 0.822506 0.831949 0.841398 0.850851 0.860306 0.86976 0.879211 0.888658 0.898098 0.907529 0.91695 0.926359 0.935754 0.945133 0.954496 0.96384 0.973164 0.982466 0.991746 1.001 1.01023 1.01944 1.02861 1.03776 1.04687 1.05596 1.06501 1.07403 1.08302 1.09196 1.10088 1.10975 1.11859 1.12739 1.13614 1.14486 1.15353 1.16216 1.17075 1.17929 1.18778 1.19623 1.20464 1.21299 1.2213 1.22955 1.23776 1.24591 1.25402 1.26207 1.27007 1.27802 1.28591 1.29375 1.30154 1.30927 1.31694 1.32456 1.33212 1.33963 1.34708 1.35447 1.36181 1.36909 1.37631 1.38348 1.39059 1.39765 1.40465 1.4116 1.41848 1.42532 1.4321 1.43883 1.4455 1.45212 1.45869 1.4652 1.47165 1.47805 1.48439 1.49067 1.49689 1.50303 1.50911 
0.690142 0.699371 0.708609 0.717858 0.727122 0.736402 0.7457 0.755016 0.764351 0.773705 0.783076 0.792464 0.801866 0.811282 0.820709 0.830145 0.839588 0.849037 0.858488 0.86794 0.877391 0.886839 0.896282 0.905718 0.915145 0.924562 0.933966 0.943357 0.952732 0.96209 0.971429 0.980749 0.990047 0.999323 1.00857 1.0178 1.027 1.03617 1.04532 1.05443 1.06351 1.07256 1.08158 1.09056 1.09951 1.10842 1.11729 1.12613 1.13492 1.14368 1.15239 1.16107 1.16969 1.17828 1.18682 1.19532 1.20377 1.21217 1.22052 1.22883 1.23709 1.24529 1.25345 1.26156 1.26961 1.27761 1.28556 1.29346 1.3013 1.30908 1.31681 1.32449 1.33211 1.33968 1.34719 1.35464 1.36203 1.36937 1.37666 1.38388 1.39105 1.39816 1.40522 1.41222 1.41916 1.42605 1.43288 1.43966 1.44638 1.45304 1.45965 1.4662 1.4727 1.47914 1.48551 1.49183 1.49808 1.50427 1.51038 1.51642 
0.697397 0.706664 0.715938 0.725221 0.734516 0.743824 0.753147 0.762486 0.77184 0.78121 0.790594 0.799993 0.809403 0.818825 0.828257 0.837696 0.847141 0.85659 0.86604 0.875491 0.88494 0.894386 0.903826 0.913258 0.922682 0.932095 0.941495 0.950882 0.960253 0.969607 0.978943 0.988259 0.997554 1.00683 1.01607 1.0253 1.03449 1.04366 1.0528 1.06191 1.07099 1.08004 1.08906 1.09804 1.10698 1.11589 1.12476 1.1336 1.14239 1.15114 1.15986 1.16853 1.17716 1.18574 1.19428 1.20278 1.21123 1.21963 1.22799 1.23629 1.24455 1.25276 1.26092 1.26902 1.27708 1.28508 1.29303 1.30093 1.30877 1.31656 1.32429 1.33197 1.33959 1.34716 1.35467 1.36212 1.36952 1.37686 1.38414 1.39137 1.39854 1.40565 1.41271 1.41971 1.42665 1.43353 1.44036 1.44713 1.45384 1.4605 1.46709 1.47363 1.48011 1.48653 1.49289 1.49919 1.50541 1.51157 1.51766 1.52367 
0.704582 0.713882 0.723187 0.732501 0.741825 0.751159 0.760506 0.769866 0.779238 0.788624 0.798021 0.807431 0.81685 0.826279 0.835716 0.845159 0.854606 0.864056 0.873508 0.882958 0.892406 0.90185 0.911288 0.920718 0.930139 0.939549 0.948946 0.958329 0.967697 0.977048 0.986381 0.995693 1.00498 1.01425 1.0235 1.03272 1.04191 1.05108 1.06022 1.06933 1.0784 1.08745 1.09646 1.10544 1.11438 1.12329 1.13216 1.14099 1.14978 1.15854 1.16725 1.17592 1.18455 1.19313 1.20167 1.21017 1.21862 1.22702 1.23537 1.24368 1.25194 1.26015 1.26831 1.27641 1.28447 1.29247 1.30042 1.30832 1.31617 1.32395 1.33169 1.33937 1.34699 1.35456 1.36207 1.36953 1.37693 1.38427 1.39155 1.39878 1.40595 1.41306 1.42011 1.42711 1.43405 1.44093 1.44775 1.45451 1.46122 1.46787 1.47445 1.48098 1.48744 1.49385 1.50019 1.50646 1.51266 1.5188 1.52486 1.53085 
0.711694 0.721024 0.730359 0.739701 0.74905 0.758409 0.767778 0.777157 0.786547 0.795948 0.805359 0.814779 0.824208 0.833645 0.843087 0.852535 0.861985 0.871438 0.88089 0.890341 0.899789 0.909231 0.918668 0.928096 0.937515 0.946923 0.956318 0.965698 0.975064 0.984412 0.993741 1.00305 1.01234 1.02161 1.03085 1.04007 1.04926 1.05842 1.06756 1.07666 1.08574 1.09478 1.10379 1.11277 1.12171 1.13061 1.13948 1.14831 1.15711 1.16586 1.17457 1.18324 1.19187 1.20045 1.20899 1.21748 1.22593 1.23434 1.24269 1.251 1.25926 1.26747 1.27562 1.28373 1.29179 1.29979 1.30774 1.31564 1.32349 1.33128 1.33901 1.34669 1.35432 1.36189 1.3694 1.37686 1.38426 1.3916 1.39888 1.40611 1.41328 1.42039 1.42744 1.43443 1.44137 1.44824 1.45506 1.46182 1.46851 1.47515 1.48173 1.48824 1.49469 1.50108 1.5074 1.51365 1.51984 1.52595 1.53199 1.53795 
0.718735 0.728092 0.737454 0.746821 0.756194 0.765575 0.774965 0.784363 0.793769 0.803185 0.812609 0.82204 0.831479 0.840923 0.850372 0.859824 0.869278 0.878733 0.888188 0.89764 0.907088 0.91653 0.925966 0.935394 0.944811 0.954217 0.96361 0.972988 0.982351 0.991697 1.00102 1.01033 1.01962 1.02888 1.03812 1.04734 1.05652 1.06569 1.07482 1.08392 1.093 1.10204 1.11105 1.12002 1.12896 1.13787 1.14673 1.15556 1.16435 1.1731 1.18181 1.19048 1.19911 1.20769 1.21623 1.22473 1.23318 1.24158 1.24993 1.25824 1.2665 1.27471 1.28287 1.29098 1.29903 1.30704 1.31499 1.32289 1.33073 1.33853 1.34626 1.35394 1.36157 1.36914 1.37665 1.38411 1.39151 1.39885 1.40613 1.41336 1.42052 1.42763 1.43468 1.44167 1.4486 1.45547 1.46229 1.46904 1.47573 1.48235 1.48892 1.49542 1.50186 1.50823 1.51453 1.52077 1.52694 1.53303 1.53905 1.54499 
0.725704 0.735086 0.744471 0.753862 0.763257 0.772659 0.782067 0.791483 0.800906 0.810335 0.819772 0.829214 0.838662 0.848114 0.857569 0.867027 0.876486 0.885944 0.895401 0.904854 0.914304 0.923747 0.933182 0.942609 0.952026 0.96143 0.970822 0.980199 0.98956 0.998903 1.00823 1.01753 1.02682 1.03608 1.04532 1.05453 1.06372 1.07288 1.08201 1.09111 1.10018 1.10922 1.11823 1.1272 1.13614 1.14504 1.15391 1.16274 1.17152 1.18027 1.18898 1.19765 1.20628 1.21486 1.2234 1.23189 1.24034 1.24875 1.2571 1.26541 1.27367 1.28188 1.29003 1.29814 1.3062 1.31421 1.32216 1.33006 1.3379 1.3457 1.35343 1.36111 1.36874 1.37631 1.38382 1.39128 1.39868 1.40602 1.4133 1.42052 1.42769 1.4348 1.44184 1.44883 1.45576 1.46262 1.46943 1.47617 1.48285 1.48947 1.49603 1.50252 1.50894 1.5153 1.52159 1.52781 1.53396 1.54003 1.54603 1.55195 
0.7326 0.742005 0.751412 0.760824 0.77024 0.779661 0.789087 0.798519 0.807957 0.8174 0.826848 0.836301 0.845758 0.855219 0.864681 0.874144 0.883608 0.89307 0.902529 0.911985 0.921436 0.93088 0.940316 0.949743 0.959159 0.968562 0.977953 0.987329 0.996688 1.00603 1.01535 1.02466 1.03394 1.0432 1.05243 1.06165 1.07083 1.07999 1.08912 1.09822 1.10729 1.11633 1.12533 1.1343 1.14324 1.15214 1.16101 1.16983 1.17862 1.18737 1.19608 1.20475 1.21337 1.22195 1.23049 1.23899 1.24743 1.25584 1.26419 1.2725 1.28076 1.28897 1.29713 1.30524 1.31329 1.3213 1.32925 1.33715 1.345 1.35279 1.36053 1.36821 1.37583 1.3834 1.39092 1.39837 1.40577 1.41311 1.42039 1.42761 1.43478 1.44188 1.44892 1.45591 1.46283 1.46969 1.47649 1.48323 1.4899 1.49651 1.50305 1.50953 1.51594 1.52229 1.52856 1.53477 1.5409 1.54696 1.55294 1.55884 
0.739423 0.748849 0.758277 0.767708 0.777142 0.786581 0.796024 0.805472 0.814924 0.82438 0.83384 0.843303 0.85277 0.862238 0.871707 0.881176 0.890645 0.900111 0.909574 0.919032 0.928484 0.93793 0.947367 0.956794 0.96621 0.975613 0.985003 0.994378 1.00374 1.01308 1.0224 1.0317 1.04098 1.05024 1.05947 1.06868 1.07787 1.08702 1.09615 1.10525 1.11432 1.12335 1.13236 1.14133 1.15026 1.15916 1.16803 1.17685 1.18564 1.19439 1.2031 1.21176 1.22039 1.22897 1.23751 1.246 1.25445 1.26285 1.27121 1.27951 1.28777 1.29598 1.30414 1.31225 1.32031 1.32831 1.33627 1.34417 1.35201 1.3598 1.36754 1.37522 1.38285 1.39042 1.39793 1.40538 1.41278 1.42012 1.4274 1.43462 1.44178 1.44888 1.45592 1.4629 1.46982 1.47667 1.48347 1.4902 1.49686 1.50346 1.51 1.51647 1.52287 1.5292 1.53546 1.54165 1.54777 1.55381 1.55978 1.56566 
0.746173 0.755618 0.765064 0.774514 0.783966 0.793421 0.80288 0.812342 0.821807 0.831276 0.840747 0.850221 0.859696 0.869172 0.878648 0.888123 0.897597 0.907067 0.916534 0.925995 0.935449 0.944896 0.954334 0.963762 0.973179 0.982582 0.991972 1.00135 1.0107 1.02004 1.02937 1.03867 1.04795 1.0572 1.06644 1.07564 1.08483 1.09398 1.10311 1.1122 1.12127 1.13031 1.13931 1.14828 1.15721 1.16611 1.17497 1.1838 1.19259 1.20133 1.21004 1.21871 1.22733 1.23591 1.24445 1.25294 1.26139 1.26979 1.27815 1.28645 1.29471 1.30292 1.31108 1.31919 1.32725 1.33525 1.3432 1.3511 1.35895 1.36674 1.37448 1.38216 1.38978 1.39735 1.40486 1.41232 1.41971 1.42705 1.43433 1.44155 1.4487 1.4558 1.46284 1.46981 1.47673 1.48358 1.49036 1.49709 1.50374 1.51034 1.51686 1.52332 1.52971 1.53603 1.54228 1.54846 1.55456 1.56059 1.56654 1.57241 
0.75285 0.762312 0.771776 0.781241 0.79071 0.80018 0.809653 0.819129 0.828607 0.838088 0.84757 0.857053 0.866537 0.876021 0.885504 0.894985 0.904464 0.913939 0.923409 0.932873 0.94233 0.951779 0.961219 0.970648 0.980065 0.989469 0.998859 1.00823 1.01759 1.02693 1.03625 1.04555 1.05483 1.06408 1.07332 1.08252 1.0917 1.10086 1.10998 1.11908 1.12814 1.13718 1.14618 1.15515 1.16408 1.17298 1.18184 1.19067 1.19945 1.2082 1.2169 1.22557 1.23419 1.24277 1.25131 1.2598 1.26825 1.27665 1.28501 1.29331 1.30157 1.30978 1.31794 1.32605 1.3341 1.34211 1.35006 1.35796 1.36581 1.3736 1.38134 1.38902 1.39664 1.40421 1.41172 1.41917 1.42656 1.4339 1.44118 1.44839 1.45555 1.46264 1.46967 1.47664 1.48355 1.4904 1.49718 1.50389 1.51054 1.51713 1.52365 1.53009 1.53647 1.54278 1.54902 1.55518 1.56127 1.56729 1.57322 1.57908 
0.759452 0.76893 0.77841 0.787891 0.797374 0.806859 0.816346 0.825835 0.835325 0.844816 0.854309 0.863801 0.873294 0.882785 0.892275 0.901763 0.911247 0.920726 0.9302 0.939668 0.949128 0.958579 0.96802 0.977451 0.986869 0.996273 1.00566 1.01504 1.0244 1.03373 1.04305 1.05235 1.06163 1.07089 1.08012 1.08932 1.0985 1.10766 1.11678 1.12587 1.13494 1.14397 1.15297 1.16194 1.17087 1.17977 1.18863 1.19745 1.20624 1.21498 1.22369 1.23236 1.24098 1.24956 1.25809 1.26659 1.27503 1.28343 1.29179 1.30009 1.30835 1.31656 1.32472 1.33283 1.34088 1.34889 1.35684 1.36474 1.37259 1.38038 1.38811 1.39579 1.40342 1.41098 1.41849 1.42594 1.43334 1.44067 1.44794 1.45515 1.46231 1.4694 1.47643 1.48339 1.4903 1.49714 1.50391 1.51062 1.51726 1.52384 1.53035 1.53679 1.54316 1.54945 1.55568 1.56183 1.56791 1.57391 1.57984 1.58568 
0.765979 0.775472 0.784967 0.794462 0.80396 0.813458 0.822958 0.832458 0.84196 0.851462 0.860964 0.870466 0.879967 0.889466 0.898962 0.908456 0.917945 0.927429 0.936907 0.946378 0.955841 0.965294 0.974738 0.98417 0.993589 1.00299 1.01239 1.02176 1.03112 1.04046 1.04978 1.05908 1.06835 1.07761 1.08684 1.09604 1.10522 1.11437 1.1235 1.13259 1.14165 1.15069 1.15969 1.16865 1.17758 1.18648 1.19534 1.20416 1.21295 1.22169 1.2304 1.23906 1.24768 1.25626 1.2648 1.27329 1.28174 1.29014 1.29849 1.3068 1.31505 1.32326 1.33142 1.33953 1.34759 1.35559 1.36354 1.37144 1.37928 1.38707 1.39481 1.40249 1.41011 1.41768 1.42518 1.43263 1.44002 1.44736 1.45463 1.46184 1.46899 1.47607 1.4831 1.49006 1.49696 1.50379 1.51056 1.51726 1.5239 1.53047 1.53697 1.5434 1.54976 1.55605 1.56226 1.5684 1.57447 1.58046 1.58637 1.59221 
0.772431 0.781938 0.791446 0.800956 0.810466 0.819976 0.829488 0.839 0.848512 0.858025 0.867536 0.877047 0.886555 0.896061 0.905565 0.915064 0.924558 0.934047 0.943529 0.953004 0.96247 0.971926 0.981371 0.990805 1.00023 1.00963 1.01902 1.0284 1.03776 1.0471 1.05642 1.06571 1.07499 1.08425 1.09348 1.10268 1.11186 1.12101 1.13013 1.13923 1.14829 1.15732 1.16632 1.17528 1.18422 1.19311 1.20197 1.21079 1.21958 1.22832 1.23702 1.24569 1.25431 1.26289 1.27142 1.27991 1.28836 1.29676 1.30511 1.31342 1.32168 1.32988 1.33804 1.34615 1.35421 1.36221 1.37016 1.37806 1.3859 1.39369 1.40143 1.4091 1.41672 1.42429 1.4318 1.43924 1.44663 1.45396 1.46123 1.46844 1.47558 1.48267 1.48969 1.49665 1.50354 1.51037 1.51713 1.52383 1.53046 1.53702 1.54351 1.54993 1.55628 1.56256 1.56877 1.5749 1.58095 1.58693 1.59283 1.59866 
0.778808 0.788328 0.797848 0.80737 0.816892 0.826415 0.835937 0.84546 0.854983 0.864504 0.874025 0.883543 0.89306 0.902573 0.912083 0.921588 0.931087 0.940581 0.950067 0.959545 0.969014 0.978473 0.987921 0.997356 1.00678 1.01619 1.02558 1.03496 1.04431 1.05365 1.06297 1.07227 1.08155 1.0908 1.10003 1.10924 1.11841 1.12756 1.13669 1.14578 1.15484 1.16387 1.17287 1.18184 1.19077 1.19966 1.20852 1.21734 1.22612 1.23487 1.24357 1.25223 1.26085 1.26943 1.27797 1.28646 1.2949 1.3033 1.31166 1.31996 1.32822 1.33642 1.34458 1.35269 1.36074 1.36875 1.3767 1.3846 1.39244 1.40023 1.40796 1.41564 1.42326 1.43082 1.43832 1.44577 1.45316 1.46048 1.46775 1.47495 1.4821 1.48918 1.49619 1.50315 1.51004 1.51686 1.52362 1.53031 1.53693 1.54348 1.54997 1.55638 1.56272 1.56899 1.57519 1.58131 1.58736 1.59333 1.59922 1.60503 
0.785108 0.79464 0.804172 0.813705 0.823239 0.832772 0.842306 0.851838 0.86137 0.870901 0.88043 0.889957 0.89948 0.909 0.918516 0.928027 0.937531 0.947029 0.95652 0.966002 0.975474 0.984936 0.994386 1.00382 1.01325 1.02266 1.03205 1.04143 1.05079 1.06013 1.06945 1.07875 1.08802 1.09728 1.10651 1.11571 1.12489 1.13404 1.14316 1.15225 1.16131 1.17034 1.17934 1.18831 1.19723 1.20613 1.21499 1.22381 1.23259 1.24133 1.25004 1.2587 1.26732 1.2759 1.28443 1.29292 1.30137 1.30977 1.31812 1.32642 1.33468 1.34288 1.35104 1.35915 1.3672 1.37521 1.38316 1.39105 1.39889 1.40668 1.41441 1.42209 1.42971 1.43727 1.44477 1.45221 1.4596 1.46692 1.47419 1.48139 1.48853 1.4956 1.50262 1.50957 1.51645 1.52327 1.53002 1.53671 1.54332 1.54987 1.55635 1.56275 1.56909 1.57535 1.58154 1.58765 1.59369 1.59965 1.60553 1.61133 
0.791331 0.800874 0.810417 0.819961 0.829505 0.839049 0.848592 0.858135 0.867676 0.877215 0.886752 0.896286 0.905817 0.915343 0.924865 0.934381 0.943891 0.953394 0.962888 0.972373 0.981849 0.991314 1.00077 1.01021 1.01963 1.02904 1.03844 1.04782 1.05718 1.06652 1.07584 1.08514 1.09441 1.10367 1.1129 1.1221 1.13128 1.14043 1.14955 1.15864 1.1677 1.17673 1.18573 1.19469 1.20362 1.21252 1.22137 1.23019 1.23898 1.24772 1.25642 1.26508 1.2737 1.28228 1.29081 1.2993 1.30775 1.31615 1.3245 1.3328 1.34106 1.34926 1.35742 1.36552 1.37358 1.38158 1.38953 1.39743 1.40527 1.41305 1.42078 1.42846 1.43607 1.44363 1.45113 1.45858 1.46596 1.47328 1.48054 1.48774 1.49488 1.50195 1.50896 1.5159 1.52278 1.5296 1.53634 1.54302 1.54963 1.55617 1.56264 1.56904 1.57537 1.58162 1.5878 1.59391 1.59993 1.60588 1.61176 1.61755 
0.797477 0.80703 0.816584 0.826138 0.835692 0.845245 0.854798 0.864349 0.873898 0.883446 0.89299 0.902532 0.912069 0.921602 0.93113 0.940651 0.950166 0.959673 0.969171 0.97866 0.988139 0.997607 1.00706 1.0165 1.02593 1.03534 1.04474 1.05412 1.06348 1.07282 1.08214 1.09144 1.10072 1.10997 1.1192 1.12841 1.13759 1.14673 1.15586 1.16495 1.17401 1.18304 1.19203 1.201 1.20993 1.21882 1.22768 1.2365 1.24528 1.25402 1.26272 1.27138 1.28 1.28858 1.29711 1.3056 1.31405 1.32244 1.33079 1.3391 1.34735 1.35556 1.36371 1.37182 1.37987 1.38787 1.39582 1.40372 1.41156 1.41934 1.42707 1.43474 1.44236 1.44992 1.45742 1.46486 1.47224 1.47955 1.48681 1.49401 1.50114 1.50821 1.51522 1.52216 1.52903 1.53584 1.54258 1.54926 1.55586 1.56239 1.56886 1.57525 1.58157 1.58782 1.59399 1.60008 1.6061 1.61205 1.61791 1.62369 
0.803544 0.813108 0.822671 0.832234 0.841798 0.85136 0.860921 0.870481 0.880038 0.889593 0.899145 0.908693 0.918237 0.927776 0.937309 0.946836 0.956355 0.965867 0.975369 0.984862 0.994344 1.00381 1.01327 1.02272 1.03215 1.04156 1.05096 1.06034 1.0697 1.07904 1.08837 1.09767 1.10694 1.1162 1.12543 1.13463 1.14381 1.15296 1.16208 1.17117 1.18023 1.18926 1.19826 1.20722 1.21615 1.22504 1.2339 1.24272 1.2515 1.26024 1.26894 1.2776 1.28622 1.2948 1.30333 1.31182 1.32026 1.32866 1.33701 1.34531 1.35357 1.36177 1.36993 1.37803 1.38608 1.39408 1.40203 1.40992 1.41776 1.42555 1.43328 1.44095 1.44856 1.45612 1.46361 1.47105 1.47843 1.48575 1.493 1.50019 1.50732 1.51439 1.52139 1.52833 1.5352 1.542 1.54874 1.55541 1.56201 1.56853 1.57499 1.58138 1.58769 1.59393 1.60009 1.60618 1.61219 1.61813 1.62398 1.62976 
0.809534 0.819106 0.828678 0.838251 0.847822 0.857393 0.866963 0.87653 0.886095 0.895657 0.905216 0.914771 0.924321 0.933865 0.943404 0.952936 0.96246 0.971975 0.981482 0.990978 1.00046 1.00994 1.0194 1.02884 1.03828 1.04769 1.05709 1.06647 1.07584 1.08518 1.0945 1.1038 1.11308 1.12234 1.13157 1.14077 1.14995 1.1591 1.16822 1.17731 1.18637 1.1954 1.20439 1.21336 1.22229 1.23118 1.24003 1.24885 1.25763 1.26637 1.27508 1.28374 1.29236 1.30093 1.30946 1.31795 1.32639 1.33479 1.34314 1.35144 1.3597 1.3679 1.37605 1.38416 1.39221 1.40021 1.40816 1.41605 1.42389 1.43167 1.4394 1.44707 1.45468 1.46223 1.46973 1.47716 1.48454 1.49185 1.4991 1.50629 1.51342 1.52048 1.52748 1.53441 1.54128 1.54808 1.55481 1.56147 1.56807 1.57459 1.58104 1.58742 1.59373 1.59996 1.60612 1.6122 1.6182 1.62413 1.62998 1.63575 
0.815444 0.825025 0.834605 0.844186 0.853766 0.863345 0.872922 0.882497 0.892069 0.901638 0.911203 0.920764 0.93032 0.93987 0.949414 0.95895 0.968479 0.977998 0.987508 0.997008 1.0065 1.01597 1.02544 1.03488 1.04432 1.05374 1.06314 1.07252 1.08189 1.09123 1.10055 1.10986 1.11913 1.12839 1.13762 1.14682 1.156 1.16515 1.17427 1.18336 1.19242 1.20145 1.21045 1.21941 1.22834 1.23723 1.24609 1.25491 1.26369 1.27243 1.28113 1.28979 1.29841 1.30698 1.31551 1.324 1.33244 1.34084 1.34919 1.35749 1.36574 1.37395 1.3821 1.3902 1.39825 1.40625 1.4142 1.42209 1.42992 1.43771 1.44543 1.4531 1.46071 1.46826 1.47576 1.48319 1.49056 1.49787 1.50512 1.51231 1.51943 1.52649 1.53349 1.54042 1.54728 1.55407 1.5608 1.56746 1.57405 1.58057 1.58701 1.59338 1.59968 1.60591 1.61206 1.61814 1.62413 1.63005 1.63589 1.64166 