# vtk DataFile Version 3.0
cell
ASCII
DATASET STRUCTURED_POINTS
DIMENSIONS 100 100 1
ORIGIN 0 0 0
SPACING 0.010000 0.010000 1
POINT_DATA 10000
SCALARS sample_scalars double
LOOKUP_TABLE default
0.557656 0.563959 0.572167 0.581139 0.590463 0.59997 0.609582 0.619256 0.628969 0.638707 0.648459 0.658219 0.667982 0.677744 0.687502 0.697253 0.706996 0.716728 0.726447 0.736153 0.745843 0.755516 0.765171 0.774807 0.784423 0.794017 0.803589 0.813137 0.82266 0.832157 0.841627 0.85107 0.860483 0.869867 0.87922 0.888542 0.89783 0.907085 0.916305 0.92549 0.934638 0.943749 0.952822 0.961855 0.970848 0.979801 0.988711 0.997579 1.0064 1.01518 1.02392 1.0326 1.04125 1.04984 1.05838 1.06688 1.07532 1.08371 1.09205 1.10034 1.10858 1.11676 1.12488 1.13295 1.14096 1.14891 1.15681 1.16465 1.17242 1.18014 1.18779 1.19539 1.20292 1.21038 1.21779 1.22513 1.2324 1.23961 1.24675 1.25382 1.26083 1.26777 1.27465 1.28145 1.28819 1.29485 1.30145 1.30799 1.31445 1.32086 1.32719 1.33348 1.3397 1.34589 1.35205 1.35821 1.36443 1.37084 1.37775 1.38601 
0.569452 0.575755 0.583411 0.591866 0.600788 0.60999 0.619367 0.628857 0.638424 0.648042 0.657695 0.667372 0.677064 0.686765 0.69647 0.706174 0.715876 0.725571 0.735258 0.744934 0.754598 0.764247 0.77388 0.783497 0.793094 0.802671 0.812228 0.821761 0.831271 0.840756 0.850215 0.859648 0.869052 0.878427 0.887771 0.897085 0.906367 0.915615 0.924829 0.934009 0.943152 0.952258 0.961326 0.970356 0.979346 0.988295 0.997203 1.00607 1.01489 1.02367 1.0324 1.04109 1.04973 1.05832 1.06686 1.07536 1.0838 1.0922 1.10054 1.10883 1.11706 1.12525 1.13337 1.14144 1.14946 1.15742 1.16532 1.17316 1.18094 1.18867 1.19633 1.20393 1.21147 1.21894 1.22636 1.23371 1.24099 1.24822 1.25537 1.26246 1.26949 1.27645 1.28335 1.29018 1.29694 1.30365 1.31029 1.31686 1.32338 1.32985 1.33626 1.34263 1.34897 1.35529 1.36162 1.36801 1.37454 1.38134 1.38866 1.39691 
0.579285 0.586141 0.593797 0.60207 0.610774 0.619774 0.628977 0.638321 0.647764 0.657278 0.666842 0.676443 0.68607 0.695714 0.705368 0.715029 0.724691 0.734351 0.744007 0.753654 0.763292 0.772918 0.78253 0.792127 0.801707 0.811267 0.820809 0.830328 0.839825 0.849298 0.858747 0.868169 0.877563 0.886929 0.896266 0.905572 0.914847 0.924089 0.933297 0.942471 0.951609 0.960711 0.969775 0.978801 0.987787 0.996733 1.00564 1.0145 1.02332 1.0321 1.04083 1.04951 1.05815 1.06675 1.07529 1.08378 1.09223 1.10062 1.10897 1.11726 1.1255 1.13368 1.14181 1.14989 1.1579 1.16587 1.17377 1.18162 1.18941 1.19714 1.2048 1.21241 1.21996 1.22745 1.23487 1.24223 1.24953 1.25676 1.26394 1.27104 1.27809 1.28507 1.29199 1.29885 1.30564 1.31237 1.31905 1.32567 1.33224 1.33876 1.34523 1.35168 1.35811 1.36454 1.37101 1.37755 1.38423 1.39117 1.39849 1.40633 
0.588297 0.595669 0.603509 0.611782 0.620405 0.629295 0.638385 0.647622 0.656969 0.666398 0.675888 0.685422 0.694991 0.704583 0.714192 0.723811 0.733437 0.743064 0.752689 0.76231 0.771923 0.781527 0.791118 0.800696 0.810258 0.819803 0.82933 0.838836 0.84832 0.857782 0.867219 0.876631 0.886016 0.895374 0.904703 0.914001 0.923269 0.932505 0.941707 0.950875 0.960009 0.969106 0.978166 0.987188 0.996171 1.00511 1.01402 1.02288 1.03169 1.04047 1.0492 1.05788 1.06652 1.07511 1.08366 1.09215 1.1006 1.10899 1.11734 1.12563 1.13387 1.14206 1.15019 1.15827 1.16629 1.17426 1.18217 1.19002 1.19781 1.20555 1.21322 1.22084 1.22839 1.23589 1.24332 1.25069 1.258 1.26525 1.27244 1.27956 1.28663 1.29363 1.30057 1.30745 1.31427 1.32103 1.32774 1.3344 1.34101 1.34757 1.35411 1.36062 1.36712 1.37363 1.38018 1.3868 1.39355 1.40048 1.40766 1.41511 
0.596896 0.604671 0.612729 0.621084 0.629707 0.638555 0.647582 0.65675 0.666028 0.675392 0.684821 0.694301 0.703819 0.713366 0.722934 0.732516 0.742108 0.751705 0.761302 0.770898 0.780488 0.79007 0.799642 0.809202 0.818747 0.828277 0.837789 0.847282 0.856754 0.866204 0.875631 0.885033 0.89441 0.903759 0.91308 0.922371 0.931632 0.940862 0.950058 0.959221 0.96835 0.977442 0.986498 0.995517 1.0045 1.01344 1.02234 1.03119 1.04001 1.04878 1.05751 1.0662 1.07483 1.08342 1.09197 1.10046 1.10891 1.11731 1.12565 1.13395 1.14219 1.15038 1.15851 1.16659 1.17462 1.18259 1.1905 1.19836 1.20616 1.2139 1.22158 1.22921 1.23677 1.24427 1.25171 1.2591 1.26642 1.27368 1.28088 1.28802 1.2951 1.30211 1.30907 1.31598 1.32282 1.32961 1.33635 1.34304 1.34969 1.35629 1.36287 1.36943 1.37598 1.38254 1.38914 1.39579 1.40254 1.40941 1.41642 1.42357 
0.60525 0.613332 0.621592 0.630057 0.638724 0.647572 0.656574 0.665703 0.674936 0.684253 0.693636 0.703072 0.712549 0.722058 0.73159 0.74114 0.750702 0.760271 0.769843 0.779415 0.788983 0.798545 0.808099 0.817642 0.827171 0.836686 0.846185 0.855665 0.865126 0.874565 0.883982 0.893375 0.902742 0.912083 0.921396 0.930681 0.939935 0.949158 0.95835 0.967507 0.976631 0.985719 0.994771 1.00379 1.01276 1.0217 1.0306 1.03945 1.04827 1.05704 1.06577 1.07445 1.08308 1.09168 1.10022 1.10872 1.11716 1.12556 1.13391 1.1422 1.15045 1.15864 1.16678 1.17486 1.18289 1.19086 1.19878 1.20664 1.21445 1.22219 1.22988 1.23751 1.24508 1.25259 1.26004 1.26744 1.27477 1.28204 1.28925 1.29641 1.3035 1.31053 1.31751 1.32443 1.3313 1.33811 1.34488 1.3516 1.35827 1.36491 1.37152 1.37812 1.3847 1.39129 1.3979 1.40455 1.41127 1.41805 1.42492 1.43183 
0.613437 0.621754 0.630188 0.638768 0.647498 0.656372 0.665374 0.674487 0.683695 0.692981 0.702331 0.711733 0.721177 0.730654 0.740157 0.749678 0.759214 0.768758 0.778307 0.787858 0.797407 0.80695 0.816487 0.826014 0.835529 0.84503 0.854516 0.863984 0.873433 0.882862 0.892269 0.901653 0.911012 0.920345 0.929651 0.938928 0.948176 0.957394 0.966579 0.975732 0.984851 0.993935 1.00298 1.01199 1.02097 1.0299 1.0388 1.04765 1.05646 1.06523 1.07396 1.08264 1.09128 1.09987 1.10841 1.11691 1.12535 1.13375 1.1421 1.1504 1.15864 1.16684 1.17498 1.18306 1.1911 1.19907 1.20699 1.21486 1.22267 1.23042 1.23812 1.24575 1.25333 1.26085 1.26831 1.27571 1.28305 1.29034 1.29756 1.30472 1.31183 1.31888 1.32588 1.33281 1.3397 1.34653 1.35332 1.36006 1.36676 1.37342 1.38006 1.38667 1.39328 1.39988 1.40649 1.41312 1.41978 1.42648 1.43321 1.43995 
0.621497 0.629997 0.638579 0.647266 0.656066 0.664978 0.673997 0.683111 0.692308 0.701576 0.710904 0.720283 0.729702 0.739154 0.748632 0.75813 0.767642 0.777165 0.786694 0.796226 0.805756 0.815283 0.824804 0.834316 0.843817 0.853306 0.862779 0.872236 0.881675 0.891094 0.900492 0.909867 0.919217 0.928543 0.937842 0.947113 0.956355 0.965567 0.974747 0.983895 0.993009 1.00209 1.01113 1.02014 1.02911 1.03804 1.04693 1.05579 1.0646 1.07336 1.08209 1.09077 1.09941 1.108 1.11654 1.12504 1.13348 1.14188 1.15023 1.15853 1.16678 1.17497 1.18312 1.1912 1.19924 1.20722 1.21515 1.22302 1.23083 1.23859 1.24629 1.25393 1.26151 1.26904 1.27651 1.28392 1.29127 1.29856 1.3058 1.31297 1.32009 1.32716 1.33416 1.34112 1.34802 1.35487 1.36167 1.36843 1.37515 1.38183 1.38848 1.39511 1.40172 1.40832 1.41491 1.42151 1.42813 1.43474 1.44136 1.44796 
0.62945 0.638098 0.646804 0.655587 0.664456 0.673415 0.682459 0.691584 0.700782 0.710043 0.719358 0.72872 0.738121 0.747554 0.757013 0.766491 0.775985 0.78549 0.795001 0.804516 0.81403 0.823542 0.833049 0.842547 0.852036 0.861512 0.870974 0.880421 0.88985 0.899259 0.908648 0.918015 0.927358 0.936676 0.945968 0.955233 0.964469 0.973675 0.982851 0.991994 1.0011 1.01018 1.01922 1.02822 1.03719 1.04612 1.05501 1.06386 1.07267 1.08143 1.09016 1.09884 1.10747 1.11606 1.12461 1.1331 1.14155 1.14995 1.1583 1.1666 1.17485 1.18305 1.19119 1.19928 1.20732 1.21531 1.22323 1.23111 1.23893 1.24669 1.25439 1.26204 1.26963 1.27717 1.28464 1.29206 1.29942 1.30672 1.31396 1.32115 1.32828 1.33536 1.34238 1.34934 1.35626 1.36312 1.36994 1.37671 1.38344 1.39013 1.39679 1.40342 1.41003 1.41662 1.4232 1.42976 1.43632 1.44286 1.44939 1.45587 
0.63731 0.646078 0.654889 0.663758 0.672693 0.681699 0.690775 0.699918 0.709124 0.718385 0.727695 0.737048 0.746437 0.755856 0.765299 0.774763 0.784241 0.79373 0.803227 0.812727 0.822227 0.831726 0.841219 0.850706 0.860183 0.869648 0.8791 0.888536 0.897956 0.907357 0.916737 0.926096 0.935432 0.944744 0.954029 0.963288 0.972518 0.981719 0.99089 1.00003 1.00913 1.01821 1.02724 1.03624 1.04521 1.05413 1.06302 1.07187 1.08068 1.08944 1.09816 1.10684 1.11548 1.12407 1.13261 1.1411 1.14955 1.15795 1.1663 1.17461 1.18286 1.19106 1.1992 1.2073 1.21534 1.22332 1.23126 1.23914 1.24696 1.25472 1.26243 1.27009 1.27768 1.28522 1.2927 1.30013 1.3075 1.31481 1.32206 1.32925 1.33639 1.34348 1.35051 1.35749 1.36441 1.37129 1.37811 1.38489 1.39163 1.39833 1.40499 1.41162 1.41822 1.4248 1.43135 1.43788 1.44439 1.45086 1.45731 1.4637 
0.645085 0.653953 0.662853 0.671797 0.680793 0.689846 0.698956 0.708122 0.71734 0.726607 0.735918 0.745267 0.754649 0.764058 0.773491 0.782943 0.792409 0.801885 0.811369 0.820857 0.830346 0.839832 0.849314 0.85879 0.868256 0.877712 0.887154 0.896581 0.905992 0.915385 0.924758 0.93411 0.943439 0.952744 0.962023 0.971276 0.980501 0.989697 0.998863 1.008 1.0171 1.02617 1.0352 1.0442 1.05316 1.06208 1.07097 1.07981 1.08862 1.09738 1.1061 1.11478 1.12341 1.132 1.14055 1.14904 1.15749 1.16589 1.17424 1.18255 1.1908 1.199 1.20715 1.21524 1.22329 1.23128 1.23921 1.2471 1.25492 1.26269 1.27041 1.27807 1.28567 1.29321 1.3007 1.30813 1.3155 1.32282 1.33008 1.33728 1.34443 1.35152 1.35856 1.36555 1.37248 1.37936 1.3862 1.39298 1.39973 1.40643 1.41309 1.41971 1.4263 1.43286 1.43938 1.44588 1.45234 1.45876 1.46513 1.47145 
0.65278 0.661732 0.670709 0.679719 0.688771 0.697869 0.707013 0.716203 0.725438 0.734716 0.744031 0.75338 0.762759 0.772163 0.781589 0.791032 0.800488 0.809955 0.819428 0.828906 0.838384 0.847861 0.857333 0.866799 0.876256 0.885702 0.895136 0.904555 0.913958 0.923343 0.932709 0.942054 0.951376 0.960675 0.969949 0.979197 0.988417 0.997608 1.00677 1.0159 1.025 1.03406 1.04309 1.05209 1.06105 1.06997 1.07885 1.08769 1.0965 1.10526 1.11398 1.12265 1.13129 1.13988 1.14842 1.15692 1.16536 1.17377 1.18212 1.19042 1.19867 1.20688 1.21503 1.22313 1.23117 1.23917 1.2471 1.25499 1.26282 1.27059 1.27831 1.28597 1.29358 1.30113 1.30862 1.31606 1.32344 1.33076 1.33803 1.34524 1.35239 1.35949 1.36654 1.37353 1.38047 1.38735 1.39419 1.40098 1.40773 1.41443 1.42108 1.4277 1.43427 1.44081 1.44731 1.45377 1.46019 1.46656 1.47287 1.47913 
0.660399 0.669422 0.678465 0.687535 0.696637 0.705776 0.714954 0.72417 0.733424 0.742714 0.752037 0.761389 0.770769 0.780171 0.789592 0.799029 0.808479 0.817938 0.827403 0.836872 0.846342 0.85581 0.865273 0.874731 0.88418 0.893618 0.903044 0.912455 0.921851 0.93123 0.940589 0.949928 0.959244 0.968537 0.977806 0.987048 0.996264 1.00545 1.01461 1.02373 1.03283 1.04189 1.05092 1.05991 1.06886 1.07778 1.08666 1.09551 1.10431 1.11307 1.12179 1.13046 1.13909 1.14768 1.15622 1.16472 1.17317 1.18157 1.18993 1.19823 1.20648 1.21469 1.22284 1.23094 1.23899 1.24698 1.25493 1.26281 1.27065 1.27842 1.28615 1.29381 1.30142 1.30898 1.31647 1.32391 1.3313 1.33863 1.3459 1.35311 1.36027 1.36738 1.37443 1.38143 1.38837 1.39526 1.4021 1.40889 1.41563 1.42233 1.42898 1.43558 1.44214 1.44866 1.45513 1.46156 1.46794 1.47426 1.48053 1.48673 
0.667943 0.677028 0.686128 0.695251 0.704399 0.713577 0.722787 0.732029 0.741302 0.750607 0.759939 0.769298 0.77868 0.788082 0.797502 0.806936 0.816381 0.825835 0.835294 0.844756 0.854218 0.863679 0.873135 0.882586 0.892027 0.901458 0.910877 0.920282 0.929672 0.939044 0.948397 0.95773 0.967041 0.976329 0.985593 0.99483 1.00404 1.01322 1.02238 1.0315 1.04059 1.04965 1.05867 1.06766 1.07662 1.08553 1.09441 1.10325 1.11205 1.12081 1.12953 1.1382 1.14683 1.15542 1.16396 1.17246 1.18091 1.18931 1.19766 1.20597 1.21423 1.22243 1.23058 1.23869 1.24674 1.25473 1.26268 1.27057 1.2784 1.28618 1.29391 1.30158 1.30919 1.31675 1.32425 1.3317 1.33909 1.34642 1.35369 1.36091 1.36808 1.37519 1.38224 1.38924 1.39619 1.40308 1.40992 1.41671 1.42345 1.43014 1.43678 1.44337 1.44992 1.45641 1.46286 1.46926 1.4756 1.48188 1.48811 1.49426 
0.675414 0.684553 0.693704 0.702872 0.712062 0.721277 0.730517 0.739784 0.749078 0.758397 0.767742 0.777108 0.786495 0.7959 0.80532 0.814752 0.824195 0.833645 0.843099 0.852556 0.862013 0.871468 0.880918 0.890362 0.899797 0.909223 0.918635 0.928035 0.937418 0.946784 0.956132 0.96546 0.974766 0.984049 0.993308 1.00254 1.01175 1.02093 1.03008 1.0392 1.04828 1.05734 1.06636 1.07535 1.0843 1.09321 1.10209 1.11093 1.11972 1.12848 1.1372 1.14587 1.1545 1.16309 1.17163 1.18013 1.18858 1.19698 1.20534 1.21364 1.2219 1.2301 1.23826 1.24636 1.25441 1.26241 1.27036 1.27825 1.28609 1.29387 1.3016 1.30927 1.31689 1.32445 1.33196 1.33941 1.3468 1.35413 1.36141 1.36864 1.3758 1.38292 1.38997 1.39697 1.40392 1.41081 1.41765 1.42444 1.43117 1.43785 1.44449 1.45107 1.4576 1.46407 1.4705 1.47686 1.48317 1.48942 1.49561 1.50172 
0.682813 0.691999 0.701195 0.710405 0.719632 0.72888 0.738149 0.74744 0.756754 0.76609 0.775446 0.784822 0.794216 0.803624 0.813046 0.822479 0.83192 0.841368 0.85082 0.860273 0.869726 0.879176 0.888621 0.89806 0.90749 0.91691 0.926317 0.935711 0.945089 0.954451 0.963794 0.973117 0.982418 0.991697 1.00095 1.01018 1.01938 1.02856 1.0377 1.04682 1.05591 1.06496 1.07398 1.08296 1.09191 1.10082 1.1097 1.11853 1.12733 1.13609 1.1448 1.15347 1.1621 1.17069 1.17923 1.18773 1.19618 1.20458 1.21294 1.22124 1.2295 1.23771 1.24586 1.25397 1.26202 1.27002 1.27797 1.28586 1.2937 1.30149 1.30922 1.3169 1.32452 1.33208 1.33959 1.34704 1.35443 1.36177 1.36906 1.37628 1.38345 1.39056 1.39762 1.40462 1.41157 1.41846 1.4253 1.43208 1.43881 1.44548 1.4521 1.45867 1.46518 1.47164 1.47804 1.48438 1.49067 1.49688 1.50303 1.50911 
0.69014 0.699367 0.708603 0.717851 0.727113 0.736391 0.745687 0.755001 0.764335 0.773687 0.783056 0.792442 0.801843 0.811257 0.820682 0.830117 0.839558 0.849005 0.858455 0.867906 0.877355 0.886802 0.896243 0.905678 0.915104 0.924519 0.933922 0.943311 0.952685 0.962042 0.97138 0.980699 0.989996 0.999271 1.00852 1.01775 1.02695 1.03612 1.04526 1.05437 1.06346 1.07251 1.08152 1.0905 1.09945 1.10836 1.11723 1.12607 1.13486 1.14362 1.15233 1.16101 1.16964 1.17822 1.18676 1.19526 1.20371 1.21211 1.22047 1.22877 1.23703 1.24524 1.2534 1.2615 1.26956 1.27756 1.28551 1.2934 1.30125 1.30903 1.31677 1.32444 1.33207 1.33963 1.34714 1.3546 1.36199 1.36933 1.37662 1.38385 1.39102 1.39813 1.40519 1.41219 1.41913 1.42602 1.43286 1.43963 1.44636 1.45302 1.45963 1.46619 1.47268 1.47912 1.4855 1.49182 1.49807 1.50426 1.51038 1.51642 
0.697395 0.70666 0.715932 0.725213 0.734506 0.743812 0.753134 0.76247 0.771823 0.781191 0.790573 0.79997 0.809379 0.818799 0.828229 0.837666 0.847109 0.856556 0.866005 0.875455 0.884902 0.894346 0.903785 0.913216 0.922638 0.93205 0.941449 0.950834 0.960204 0.969557 0.978892 0.988207 0.9975 1.00677 1.01602 1.02524 1.03444 1.04361 1.05275 1.06186 1.07093 1.07998 1.089 1.09798 1.10692 1.11583 1.1247 1.13353 1.14233 1.15108 1.15979 1.16847 1.1771 1.18568 1.19422 1.20272 1.21117 1.21957 1.22793 1.23623 1.24449 1.2527 1.26086 1.26896 1.27702 1.28502 1.29297 1.30087 1.30872 1.3165 1.32424 1.33192 1.33954 1.34711 1.35462 1.36208 1.36948 1.37682 1.3841 1.39133 1.3985 1.40562 1.41267 1.41967 1.42662 1.4335 1.44033 1.4471 1.45382 1.46048 1.46708 1.47362 1.4801 1.48652 1.49288 1.49918 1.50541 1.51157 1.51766 1.52367 
0.704579 0.713878 0.723181 0.732493 0.741814 0.751147 0.760492 0.769849 0.77922 0.788603 0.797999 0.807407 0.816825 0.826252 0.835687 0.845128 0.854573 0.864022 0.873471 0.88292 0.892366 0.901808 0.911245 0.920673 0.930093 0.939501 0.948897 0.958279 0.967646 0.976995 0.986327 0.995638 1.00493 1.0142 1.02344 1.03266 1.04185 1.05102 1.06016 1.06926 1.07834 1.08738 1.0964 1.10537 1.11432 1.12322 1.13209 1.14093 1.14972 1.15847 1.16718 1.17585 1.18448 1.19307 1.20161 1.2101 1.21855 1.22696 1.23531 1.24362 1.25188 1.26009 1.26825 1.27635 1.28441 1.29241 1.30037 1.30827 1.31611 1.3239 1.33164 1.33932 1.34694 1.35451 1.36203 1.36948 1.37688 1.38422 1.39151 1.39874 1.40591 1.41302 1.42008 1.42708 1.43402 1.4409 1.44772 1.45449 1.4612 1.46784 1.47443 1.48096 1.48743 1.49383 1.50017 1.50645 1.51266 1.51879 1.52486 1.53085 
0.711692 0.72102 0.730353 0.739692 0.74904 0.758396 0.767763 0.77714 0.786528 0.795927 0.805336 0.814754 0.824181 0.833616 0.843057 0.852502 0.861951 0.871401 0.880852 0.890301 0.899747 0.909188 0.918623 0.92805 0.937467 0.946873 0.956267 0.965646 0.97501 0.984356 0.993685 1.00299 1.01228 1.02155 1.03079 1.04 1.04919 1.05836 1.06749 1.0766 1.08567 1.09471 1.10372 1.1127 1.12164 1.13055 1.13941 1.14825 1.15704 1.16579 1.1745 1.18317 1.1918 1.20038 1.20892 1.21742 1.22587 1.23427 1.24262 1.25093 1.25919 1.2674 1.27556 1.28367 1.29173 1.29973 1.30768 1.31558 1.32343 1.33122 1.33896 1.34664 1.35427 1.36184 1.36935 1.37681 1.38421 1.39155 1.39884 1.40607 1.41324 1.42035 1.4274 1.4344 1.44133 1.44821 1.45503 1.46179 1.46849 1.47513 1.48171 1.48822 1.49468 1.50106 1.50739 1.51364 1.51983 1.52595 1.53199 1.53795 
0.718733 0.728088 0.737447 0.746812 0.756183 0.765562 0.774949 0.784345 0.79375 0.803163 0.812585 0.822014 0.83145 0.840893 0.850339 0.85979 0.869242 0.878695 0.888148 0.897598 0.907044 0.916485 0.925919 0.935345 0.944761 0.954165 0.963557 0.972934 0.982295 0.991639 1.00097 1.01027 1.01956 1.02882 1.03806 1.04727 1.05646 1.06562 1.07475 1.08386 1.09293 1.10197 1.11098 1.11995 1.12889 1.13779 1.14666 1.15549 1.16428 1.17303 1.18174 1.19041 1.19904 1.20762 1.21616 1.22466 1.23311 1.24151 1.24986 1.25817 1.26643 1.27464 1.2828 1.29091 1.29897 1.30697 1.31493 1.32283 1.33067 1.33847 1.3462 1.35389 1.36151 1.36908 1.3766 1.38406 1.39146 1.3988 1.40609 1.41331 1.42048 1.42759 1.43464 1.44164 1.44857 1.45544 1.46225 1.46901 1.4757 1.48233 1.4889 1.4954 1.50184 1.50821 1.51452 1.52076 1.52693 1.53302 1.53904 1.54499 
0.725701 0.735081 0.744464 0.753852 0.763246 0.772645 0.782051 0.791465 0.800885 0.810313 0.819747 0.829187 0.838632 0.848082 0.857536 0.866992 0.876448 0.885905 0.895359 0.904811 0.914258 0.9237 0.933134 0.942559 0.951973 0.961376 0.970766 0.980142 0.989501 0.998843 1.00817 1.01747 1.02675 1.03601 1.04525 1.05446 1.06365 1.07281 1.08194 1.09104 1.10011 1.10915 1.11815 1.12713 1.13607 1.14497 1.15383 1.16266 1.17145 1.1802 1.18891 1.19758 1.2062 1.21479 1.22333 1.23182 1.24027 1.24867 1.25703 1.26534 1.2736 1.28181 1.28997 1.29808 1.30613 1.31414 1.32209 1.32999 1.33784 1.34563 1.35337 1.36106 1.36868 1.37625 1.38377 1.39123 1.39863 1.40597 1.41325 1.42048 1.42765 1.43475 1.4418 1.44879 1.45572 1.46259 1.4694 1.47614 1.48283 1.48945 1.496 1.5025 1.50892 1.51528 1.52158 1.5278 1.53395 1.54002 1.54603 1.55195 
0.732597 0.742 0.751405 0.760814 0.770228 0.779646 0.78907 0.7985 0.807935 0.817376 0.826823 0.836273 0.845728 0.855186 0.864646 0.874108 0.883569 0.893029 0.902486 0.91194 0.921389 0.930831 0.940265 0.94969 0.959104 0.968507 0.977896 0.98727 0.996628 1.00597 1.01529 1.02459 1.03387 1.04313 1.05237 1.06158 1.07076 1.07992 1.08905 1.09815 1.10721 1.11625 1.12526 1.13423 1.14316 1.15206 1.16093 1.16976 1.17854 1.18729 1.196 1.20467 1.2133 1.22188 1.23042 1.23891 1.24736 1.25576 1.26412 1.27243 1.28068 1.28889 1.29706 1.30516 1.31322 1.32123 1.32918 1.33709 1.34493 1.35273 1.36046 1.36815 1.37577 1.38335 1.39086 1.39832 1.40572 1.41306 1.42034 1.42757 1.43473 1.44184 1.44888 1.45587 1.46279 1.46965 1.47646 1.48319 1.48987 1.49648 1.50303 1.50951 1.51593 1.52227 1.52855 1.53476 1.54089 1.54695 1.55294 1.55884 
0.739421 0.748844 0.758269 0.767698 0.77713 0.786566 0.796007 0.805452 0.814902 0.824355 0.833813 0.843274 0.852738 0.862204 0.871671 0.881138 0.890604 0.900068 0.909529 0.918985 0.928436 0.937879 0.947314 0.956739 0.966154 0.975556 0.984944 0.994317 1.00367 1.01301 1.02233 1.03163 1.04091 1.05017 1.0594 1.06861 1.07779 1.08695 1.09608 1.10517 1.11424 1.12328 1.13228 1.14125 1.15019 1.15909 1.16795 1.17677 1.18556 1.19431 1.20302 1.21169 1.22031 1.22889 1.23743 1.24592 1.25437 1.26277 1.27113 1.27944 1.2877 1.29591 1.30407 1.31218 1.32024 1.32824 1.3362 1.3441 1.35195 1.35974 1.36748 1.37516 1.38279 1.39036 1.39787 1.40533 1.41273 1.42007 1.42735 1.43457 1.44173 1.44884 1.45588 1.46286 1.46978 1.47664 1.48343 1.49017 1.49683 1.50344 1.50997 1.51644 1.52285 1.52918 1.53545 1.54164 1.54776 1.5538 1.55977 1.56566 
0.746171 0.755613 0.765057 0.774503 0.783953 0.793406 0.802862 0.812321 0.821784 0.83125 0.840719 0.85019 0.859663 0.869137 0.878611 0.888084 0.897555 0.907023 0.916488 0.925947 0.935399 0.944844 0.95428 0.963706 0.973121 0.982523 0.991911 1.00128 1.01064 1.01998 1.0293 1.0386 1.04787 1.05713 1.06636 1.07557 1.08475 1.0939 1.10303 1.11213 1.12119 1.13023 1.13923 1.1482 1.15713 1.16603 1.17489 1.18372 1.1925 1.20125 1.20996 1.21862 1.22725 1.23583 1.24437 1.25286 1.26131 1.26971 1.27807 1.28637 1.29463 1.30284 1.311 1.31911 1.32717 1.33518 1.34313 1.35103 1.35888 1.36667 1.37441 1.38209 1.38972 1.39729 1.4048 1.41226 1.41966 1.427 1.43428 1.4415 1.44866 1.45576 1.46279 1.46977 1.47669 1.48354 1.49033 1.49705 1.50371 1.51031 1.51684 1.5233 1.52969 1.53601 1.54226 1.54844 1.55455 1.56058 1.56653 1.57241 
0.752847 0.762306 0.771768 0.781231 0.790696 0.800164 0.809635 0.819108 0.828584 0.838062 0.847541 0.857022 0.866504 0.875985 0.885466 0.894945 0.904421 0.913894 0.923362 0.932824 0.942279 0.951726 0.961163 0.97059 0.980005 0.989408 0.998795 1.00817 1.01752 1.02686 1.03618 1.04548 1.05476 1.06401 1.07324 1.08245 1.09163 1.10078 1.1099 1.119 1.12806 1.1371 1.1461 1.15506 1.164 1.1729 1.18176 1.19058 1.19937 1.20811 1.21682 1.22548 1.23411 1.24269 1.25123 1.25972 1.26817 1.27657 1.28492 1.29323 1.30149 1.3097 1.31786 1.32597 1.33403 1.34203 1.34999 1.35789 1.36574 1.37353 1.38127 1.38895 1.39658 1.40414 1.41166 1.41911 1.42651 1.43384 1.44112 1.44834 1.4555 1.46259 1.46963 1.4766 1.48351 1.49036 1.49714 1.50386 1.51051 1.5171 1.52362 1.53007 1.53645 1.54276 1.549 1.55517 1.56126 1.56728 1.57322 1.57908 
0.759449 0.768925 0.778402 0.78788 0.797361 0.806843 0.816327 0.825813 0.835301 0.84479 0.854279 0.86377 0.873259 0.882749 0.892236 0.901721 0.911202 0.92068 0.930151 0.939617 0.949074 0.958524 0.967963 0.977391 0.986807 0.99621 1.0056 1.01497 1.02433 1.03366 1.04298 1.05228 1.06156 1.07081 1.08004 1.08924 1.09842 1.10757 1.1167 1.12579 1.13486 1.14389 1.15289 1.16185 1.17079 1.17968 1.18854 1.19737 1.20615 1.2149 1.2236 1.23227 1.24089 1.24947 1.25801 1.2665 1.27495 1.28335 1.2917 1.30001 1.30827 1.31648 1.32464 1.33275 1.34081 1.34881 1.35677 1.36467 1.37251 1.38031 1.38804 1.39572 1.40335 1.41092 1.41843 1.42588 1.43328 1.44061 1.44789 1.4551 1.46226 1.46935 1.47638 1.48335 1.49025 1.4971 1.50387 1.51059 1.51723 1.52381 1.53032 1.53676 1.54313 1.54944 1.55566 1.56182 1.5679 1.5739 1.57983 1.58568 
0.765976 0.775467 0.784958 0.794451 0.803946 0.813441 0.822938 0.832436 0.841935 0.851434 0.860934 0.870433 0.879931 0.889428 0.898922 0.908413 0.917899 0.927381 0.936857 0.946325 0.955786 0.965238 0.974679 0.984109 0.993526 1.00293 1.01232 1.02169 1.03105 1.04038 1.0497 1.059 1.06828 1.07753 1.08676 1.09596 1.10514 1.11429 1.12341 1.13251 1.14157 1.1506 1.1596 1.16856 1.1775 1.18639 1.19525 1.20407 1.21286 1.2216 1.23031 1.23897 1.24759 1.25617 1.26471 1.2732 1.28165 1.29005 1.2984 1.30671 1.31497 1.32318 1.33134 1.33945 1.3475 1.35551 1.36346 1.37136 1.37921 1.387 1.39474 1.40242 1.41004 1.41761 1.42512 1.43257 1.43996 1.4473 1.45457 1.46178 1.46893 1.47602 1.48305 1.49002 1.49692 1.50375 1.51052 1.51723 1.52387 1.53044 1.53694 1.54337 1.54974 1.55603 1.56225 1.56839 1.57446 1.58045 1.58637 1.5922 
0.772428 0.781933 0.791438 0.800944 0.810451 0.819959 0.829468 0.838977 0.848487 0.857996 0.867505 0.877013 0.886519 0.896022 0.905523 0.91502 0.924512 0.933998 0.943478 0.95295 0.962414 0.971868 0.981311 0.990742 1.00016 1.00957 1.01896 1.02833 1.03768 1.04702 1.05634 1.06564 1.07491 1.08417 1.09339 1.1026 1.11177 1.12092 1.13005 1.13914 1.1482 1.15723 1.16623 1.17519 1.18412 1.19302 1.20188 1.2107 1.21948 1.22823 1.23693 1.2456 1.25422 1.2628 1.27133 1.27982 1.28827 1.29667 1.30502 1.31333 1.32159 1.3298 1.33796 1.34606 1.35412 1.36213 1.37008 1.37798 1.38583 1.39362 1.40135 1.40903 1.41665 1.42422 1.43173 1.43918 1.44657 1.4539 1.46117 1.46838 1.47553 1.48261 1.48964 1.4966 1.50349 1.51033 1.51709 1.52379 1.53042 1.53699 1.54348 1.54991 1.55626 1.56254 1.56875 1.57488 1.58094 1.58692 1.59283 1.59865 
0.778805 0.788322 0.79784 0.807358 0.816877 0.826397 0.835917 0.845437 0.854957 0.864475 0.873993 0.883509 0.893023 0.902533 0.91204 0.921542 0.931039 0.94053 0.950014 0.95949 0.968957 0.978413 0.987859 0.997292 1.00671 1.01612 1.02551 1.03488 1.04424 1.05358 1.0629 1.07219 1.08147 1.09072 1.09995 1.10915 1.11833 1.12748 1.1366 1.14569 1.15475 1.16378 1.17278 1.18174 1.19067 1.19957 1.20842 1.21725 1.22603 1.23477 1.24348 1.25214 1.26076 1.26934 1.27787 1.28637 1.29481 1.30321 1.31156 1.31987 1.32813 1.33634 1.34449 1.3526 1.36066 1.36866 1.37662 1.38452 1.39236 1.40015 1.40788 1.41556 1.42318 1.43075 1.43826 1.4457 1.45309 1.46042 1.46769 1.4749 1.48204 1.48912 1.49614 1.5031 1.50999 1.51682 1.52358 1.53027 1.5369 1.54345 1.54994 1.55636 1.5627 1.56897 1.57517 1.5813 1.58735 1.59332 1.59921 1.60503 
0.785105 0.794634 0.804163 0.813693 0.823224 0.832754 0.842285 0.851815 0.861344 0.870872 0.880398 0.889921 0.899442 0.90896 0.918473 0.927981 0.937483 0.946978 0.956466 0.965945 0.975415 0.984875 0.994323 1.00376 1.01318 1.02259 1.03198 1.04135 1.05071 1.06005 1.06937 1.07867 1.08794 1.09719 1.10642 1.11562 1.1248 1.13395 1.14307 1.15216 1.16122 1.17025 1.17925 1.18821 1.19714 1.20603 1.21489 1.22371 1.23249 1.24124 1.24994 1.2586 1.26722 1.2758 1.28434 1.29283 1.30127 1.30967 1.31802 1.32633 1.33459 1.34279 1.35095 1.35906 1.36712 1.37512 1.38307 1.39097 1.39881 1.4066 1.41434 1.42201 1.42963 1.4372 1.4447 1.45215 1.45953 1.46686 1.47413 1.48133 1.48847 1.49555 1.50257 1.50952 1.5164 1.52323 1.52998 1.53667 1.54329 1.54984 1.55632 1.56273 1.56906 1.57533 1.58152 1.58763 1.59367 1.59964 1.60552 1.61132 
0.791328 0.800868 0.810408 0.819949 0.82949 0.839031 0.848571 0.85811 0.867649 0.877185 0.886719 0.89625 0.905778 0.915302 0.924821 0.934334 0.943841 0.953341 0.962833 0.972316 0.981789 0.991251 1.0007 1.01014 1.01956 1.02897 1.03836 1.04774 1.0571 1.06644 1.07576 1.08505 1.09433 1.10358 1.11281 1.12201 1.13119 1.14034 1.14946 1.15855 1.16761 1.17664 1.18563 1.1946 1.20352 1.21242 1.22127 1.23009 1.23888 1.24762 1.25632 1.26498 1.2736 1.28218 1.29072 1.29921 1.30765 1.31605 1.3244 1.33271 1.34096 1.34917 1.35733 1.36543 1.37349 1.38149 1.38944 1.39734 1.40518 1.41297 1.4207 1.42838 1.436 1.44356 1.45106 1.45851 1.46589 1.47322 1.48048 1.48768 1.49482 1.50189 1.50891 1.51585 1.52274 1.52955 1.5363 1.54298 1.5496 1.55614 1.56261 1.56901 1.57534 1.5816 1.58778 1.59389 1.59992 1.60588 1.61175 1.61755 
0.797473 0.807024 0.816575 0.826125 0.835676 0.845227 0.854776 0.864324 0.873871 0.883415 0.892957 0.902495 0.91203 0.92156 0.931084 0.940603 0.950115 0.959619 0.969115 0.978602 0.988078 0.997543 1.007 1.01644 1.02586 1.03527 1.04467 1.05404 1.0634 1.07274 1.08206 1.09136 1.10063 1.10989 1.11911 1.12832 1.13749 1.14664 1.15576 1.16485 1.17391 1.18294 1.19194 1.2009 1.20983 1.21872 1.22758 1.2364 1.24518 1.25392 1.26262 1.27128 1.2799 1.28848 1.29701 1.3055 1.31395 1.32235 1.3307 1.339 1.34726 1.35546 1.36362 1.37173 1.37978 1.38778 1.39573 1.40363 1.41147 1.41926 1.42699 1.43466 1.44228 1.44984 1.45734 1.46479 1.47217 1.47949 1.48675 1.49395 1.50108 1.50816 1.51516 1.52211 1.52898 1.5358 1.54254 1.54922 1.55582 1.56236 1.56883 1.57522 1.58155 1.58779 1.59397 1.60007 1.60609 1.61204 1.6179 1.62369 
0.803541 0.813101 0.822661 0.832222 0.841782 0.851341 0.860899 0.870456 0.88001 0.889562 0.899111 0.908656 0.918197 0.927733 0.937263 0.946787 0.956304 0.965812 0.975312 0.984802 0.994282 1.00375 1.0132 1.02265 1.03207 1.04149 1.05088 1.06026 1.06962 1.07896 1.08828 1.09758 1.10686 1.11611 1.12534 1.13454 1.14371 1.15286 1.16198 1.17107 1.18013 1.18916 1.19816 1.20712 1.21605 1.22494 1.2338 1.24261 1.25139 1.26014 1.26884 1.2775 1.28612 1.2947 1.30323 1.31172 1.32016 1.32856 1.33691 1.34521 1.35347 1.36168 1.36983 1.37794 1.38599 1.39399 1.40194 1.40984 1.41768 1.42546 1.43319 1.44087 1.44848 1.45604 1.46354 1.47098 1.47836 1.48568 1.49294 1.50013 1.50726 1.51433 1.52134 1.52828 1.53515 1.54196 1.5487 1.55537 1.56197 1.5685 1.57496 1.58135 1.58766 1.59391 1.60007 1.60617 1.61218 1.61812 1.62398 1.62976 
0.80953 0.819099 0.828669 0.838238 0.847806 0.857374 0.86694 0.876504 0.886066 0.895626 0.905181 0.914733 0.92428 0.933822 0.943357 0.952886 0.962407 0.97192 0.981424 0.990917 1.0004 1.00987 1.01933 1.02877 1.0382 1.04762 1.05701 1.06639 1.07575 1.0851 1.09442 1.10372 1.11299 1.12225 1.13147 1.14068 1.14985 1.159 1.16812 1.17721 1.18627 1.1953 1.20429 1.21326 1.22218 1.23107 1.23993 1.24875 1.25753 1.26627 1.27497 1.28363 1.29225 1.30083 1.30936 1.31785 1.32629 1.33469 1.34304 1.35134 1.3596 1.3678 1.37596 1.38406 1.39212 1.40012 1.40806 1.41596 1.4238 1.43158 1.43931 1.44698 1.4546 1.46215 1.46965 1.47709 1.48447 1.49178 1.49904 1.50623 1.51336 1.52043 1.52743 1.53436 1.54123 1.54803 1.55477 1.56143 1.56803 1.57456 1.58101 1.58739 1.5937 1.59994 1.6061 1.61218 1.61819 1.62412 1.62997 1.63574 
0.815441 0.825018 0.834596 0.844173 0.853749 0.863325 0.872899 0.88247 0.89204 0.901605 0.911168 0.920725 0.930278 0.939825 0.949366 0.9589 0.968425 0.977942 0.987449 0.996946 1.00643 1.01591 1.02537 1.03481 1.04424 1.05366 1.06306 1.07244 1.0818 1.09115 1.10047 1.10977 1.11904 1.1283 1.13753 1.14673 1.1559 1.16505 1.17417 1.18326 1.19232 1.20135 1.21035 1.21931 1.22823 1.23713 1.24598 1.2548 1.26358 1.27232 1.28102 1.28968 1.2983 1.30688 1.31541 1.3239 1.33234 1.34074 1.34909 1.35739 1.36564 1.37385 1.382 1.39011 1.39816 1.40616 1.4141 1.422 1.42984 1.43762 1.44535 1.45302 1.46063 1.46818 1.47568 1.48311 1.49049 1.4978 1.50506 1.51225 1.51937 1.52643 1.53343 1.54036 1.54723 1.55403 1.56076 1.56742 1.57401 1.58053 1.58698 1.59336 1.59966 1.60589 1.61204 1.61812 1.62412 1.63004 1.63589 1.64165 