# vtk DataFile Version 3.0
cell
ASCII
DATASET STRUCTURED_POINTS
DIMENSIONS 100 100 1
ORIGIN 0 0 0
SPACING 0.010000 0.010000 1
POINT_DATA 10000
SCALARS sample_scalars double
LOOKUP_TABLE default
0.555924 0.560767 0.567683 0.575479 0.583717 0.59221 0.600868 0.60964 0.618498 0.627421 0.636395 0.645411 0.654461 0.663538 0.672637 0.681754 0.690886 0.700028 0.709179 0.718335 0.727494 0.736653 0.745812 0.754967 0.764117 0.773261 0.782396 0.791521 0.800635 0.809736 0.818823 0.827894 0.836949 0.845985 0.855002 0.863999 0.872975 0.881927 0.890857 0.899761 0.90864 0.917493 0.926318 0.935115 0.943882 0.95262 0.961327 0.970002 0.978644 0.987254 0.99583 1.00437 1.01288 1.02135 1.02978 1.03818 1.04654 1.05486 1.06315 1.07139 1.0796 1.08777 1.09589 1.10398 1.11203 1.12004 1.12801 1.13594 1.14382 1.15167 1.15948 1.16725 1.17498 1.18268 1.19033 1.19795 1.20553 1.21307 1.22059 1.22807 1.23551 1.24293 1.25033 1.25769 1.26504 1.27237 1.27968 1.28699 1.29429 1.3016 1.30893 1.31628 1.32367 1.33113 1.33868 1.34638 1.35432 1.36266 1.37179 1.38269 
0.566257 0.569753 0.574882 0.581021 0.587796 0.594989 0.602475 0.610178 0.618047 0.626048 0.634158 0.642358 0.650634 0.658976 0.667374 0.675821 0.684311 0.692838 0.701397 0.709984 0.718595 0.727227 0.735876 0.744541 0.753217 0.761902 0.770595 0.779293 0.787994 0.796696 0.805397 0.814096 0.822791 0.83148 0.840162 0.848836 0.8575 0.866153 0.874795 0.883422 0.892036 0.900634 0.909216 0.917781 0.926328 0.934856 0.943365 0.951853 0.960321 0.968767 0.977191 0.985593 0.993972 1.00233 1.01066 1.01897 1.02725 1.03552 1.04375 1.05196 1.06015 1.06832 1.07646 1.08458 1.09268 1.10075 1.1088 1.11684 1.12485 1.13284 1.14082 1.14878 1.15673 1.16466 1.17258 1.1805 1.1884 1.19631 1.20421 1.21211 1.22003 1.22795 1.23589 1.24385 1.25184 1.25987 1.26794 1.27607 1.28426 1.29254 1.30092 1.30942 1.31809 1.32694 1.33605 1.3455 1.35542 1.36603 1.37767 1.39094 
0.574797 0.57761 0.581575 0.586441 0.591973 0.597998 0.604397 0.611086 0.618006 0.625117 0.632387 0.639792 0.647313 0.654936 0.662648 0.670438 0.678299 0.686222 0.694202 0.702231 0.710306 0.71842 0.726571 0.734754 0.742966 0.751204 0.759464 0.767744 0.776042 0.784354 0.792679 0.801015 0.809359 0.81771 0.826066 0.834426 0.842788 0.85115 0.859512 0.867871 0.876228 0.884581 0.892928 0.901269 0.909604 0.917931 0.926249 0.934559 0.94286 0.951151 0.959431 0.967701 0.975961 0.98421 0.992448 1.00068 1.00889 1.0171 1.0253 1.03348 1.04166 1.04983 1.05799 1.06615 1.0743 1.08245 1.09059 1.09874 1.10688 1.11502 1.12317 1.13133 1.1395 1.14768 1.15587 1.16409 1.17232 1.18059 1.18888 1.19722 1.2056 1.21403 1.22252 1.23108 1.23971 1.24843 1.25726 1.2662 1.27528 1.28451 1.29393 1.30357 1.31346 1.32367 1.33427 1.34534 1.35704 1.36955 1.38314 1.39811 
0.582634 0.584822 0.58788 0.59171 0.596177 0.601159 0.606558 0.612297 0.618318 0.624575 0.631035 0.63767 0.644458 0.65138 0.658423 0.665572 0.672818 0.680151 0.687563 0.695047 0.702597 0.710205 0.717868 0.725581 0.73334 0.741139 0.748977 0.756849 0.764753 0.772685 0.780643 0.788624 0.796627 0.804649 0.812688 0.820743 0.828811 0.836891 0.844981 0.853081 0.861189 0.869304 0.877425 0.885551 0.893681 0.901815 0.909952 0.918091 0.926232 0.934375 0.942519 0.950665 0.958813 0.966962 0.975113 0.983266 0.991422 0.999582 1.00775 1.01591 1.02409 1.03227 1.04046 1.04866 1.05687 1.0651 1.07334 1.08159 1.08987 1.09817 1.1065 1.11486 1.12325 1.13168 1.14015 1.14867 1.15724 1.16587 1.17456 1.18333 1.19218 1.20111 1.21015 1.2193 1.22857 1.23799 1.24756 1.25731 1.26725 1.27743 1.28786 1.2986 1.30968 1.32118 1.33317 1.34574 1.35903 1.3732 1.38843 1.40491 
0.590149 0.59168 0.593932 0.596861 0.600389 0.604431 0.608911 0.613763 0.618933 0.624378 0.63006 0.635953 0.642031 0.648274 0.654665 0.66119 0.667837 0.674595 0.681453 0.688404 0.69544 0.702555 0.709742 0.716995 0.72431 0.731682 0.739107 0.746581 0.754101 0.761662 0.769262 0.776899 0.78457 0.792271 0.800002 0.80776 0.815543 0.823349 0.831177 0.839025 0.846893 0.854778 0.862681 0.870599 0.878533 0.886481 0.894443 0.902419 0.910408 0.918411 0.926426 0.934455 0.942498 0.950554 0.958625 0.966711 0.974812 0.982931 0.991067 0.999223 1.0074 1.0156 1.02382 1.03207 1.04035 1.04865 1.057 1.06538 1.07379 1.08226 1.09077 1.09933 1.10795 1.11663 1.12538 1.13421 1.14311 1.1521 1.1612 1.17039 1.17971 1.18915 1.19873 1.20847 1.21837 1.22847 1.23877 1.24931 1.26011 1.2712 1.28262 1.29442 1.30664 1.31936 1.33265 1.34661 1.36135 1.377 1.39371 1.4116 
0.597493 0.59834 0.59983 0.601938 0.604613 0.607795 0.611426 0.615448 0.619816 0.624487 0.629426 0.634605 0.639998 0.645584 0.651344 0.657263 0.663327 0.669524 0.675843 0.682275 0.688811 0.695443 0.702165 0.70897 0.715853 0.722808 0.72983 0.736916 0.744061 0.751261 0.758514 0.765815 0.773162 0.780552 0.787983 0.795453 0.802959 0.810499 0.818073 0.825678 0.833313 0.840977 0.848669 0.856387 0.864132 0.871902 0.879697 0.887517 0.895361 0.90323 0.911124 0.919043 0.926987 0.934957 0.942954 0.950978 0.959032 0.967115 0.97523 0.983379 0.991562 0.999783 1.00804 1.01635 1.02469 1.03309 1.04154 1.05004 1.05861 1.06723 1.07593 1.0847 1.09355 1.10249 1.11152 1.12065 1.12989 1.13925 1.14873 1.15836 1.16814 1.17808 1.1882 1.19852 1.20905 1.21981 1.23084 1.24215 1.25378 1.26576 1.27813 1.29094 1.30425 1.31813 1.33264 1.34788 1.36394 1.38096 1.39902 1.41826 
0.604733 0.604883 0.605637 0.606975 0.60886 0.611245 0.614082 0.617327 0.620936 0.624872 0.629102 0.633596 0.63833 0.643281 0.648431 0.653762 0.65926 0.664912 0.670707 0.676633 0.682682 0.688845 0.695114 0.701482 0.707943 0.714492 0.721123 0.72783 0.73461 0.741459 0.748372 0.755347 0.762379 0.769467 0.776607 0.783797 0.791034 0.798318 0.805645 0.813015 0.820425 0.827875 0.835364 0.84289 0.850453 0.858052 0.865687 0.873358 0.881064 0.888806 0.896585 0.9044 0.912252 0.920142 0.928071 0.93604 0.944051 0.952105 0.960204 0.968351 0.976547 0.984795 0.993099 1.00146 1.00988 1.01837 1.02693 1.03556 1.04427 1.05307 1.06195 1.07093 1.08001 1.08921 1.09852 1.10796 1.11753 1.12725 1.13713 1.14718 1.15742 1.16786 1.17851 1.1894 1.20054 1.21196 1.22369 1.23576 1.24819 1.26103 1.27432 1.2881 1.30245 1.31741 1.33306 1.3495 1.3668 1.38507 1.4044 1.42491 
0.611899 0.611353 0.611394 0.612 0.613139 0.614776 0.616869 0.61938 0.622272 0.625509 0.629061 0.632899 0.636999 0.641338 0.645898 0.650661 0.655611 0.660735 0.66602 0.671455 0.67703 0.682735 0.688564 0.694507 0.700558 0.706711 0.71296 0.7193 0.725725 0.732232 0.738815 0.745472 0.752199 0.758993 0.76585 0.772769 0.779747 0.786781 0.79387 0.801011 0.808205 0.815448 0.822741 0.830082 0.83747 0.844905 0.852387 0.859916 0.867491 0.875113 0.882782 0.890499 0.898265 0.906081 0.913948 0.921867 0.929841 0.937871 0.94596 0.95411 0.962323 0.970603 0.978953 0.987377 0.995879 1.00446 1.01313 1.0219 1.03076 1.03972 1.04879 1.05798 1.0673 1.07675 1.08634 1.09609 1.10599 1.11608 1.12635 1.13682 1.14751 1.15843 1.16961 1.18106 1.1928 1.20487 1.21728 1.23008 1.24329 1.25695 1.27112 1.28583 1.30116 1.31715 1.33388 1.35143 1.36989 1.38933 1.40986 1.43156 
0.619007 0.617776 0.617123 0.617027 0.617459 0.618387 0.619777 0.621594 0.623804 0.626375 0.62928 0.632489 0.635981 0.639732 0.643723 0.647936 0.652355 0.656967 0.661758 0.666716 0.671831 0.677093 0.682493 0.688022 0.693675 0.699443 0.705321 0.711303 0.717383 0.723557 0.72982 0.736169 0.742599 0.749108 0.755691 0.762347 0.769072 0.775865 0.782723 0.789645 0.796628 0.803673 0.810777 0.817939 0.82516 0.832438 0.839774 0.847166 0.854616 0.862124 0.86969 0.877315 0.885001 0.892748 0.900558 0.908433 0.916375 0.924386 0.932468 0.940626 0.94886 0.957176 0.965577 0.974067 0.982651 0.991333 1.00012 1.00901 1.01803 1.02716 1.03643 1.04583 1.05538 1.06508 1.07495 1.085 1.09524 1.10568 1.11633 1.12722 1.13836 1.14976 1.16145 1.17344 1.18577 1.19846 1.21154 1.22505 1.23901 1.25347 1.26848 1.28408 1.30034 1.3173 1.33505 1.35365 1.37319 1.39373 1.41538 1.43821 
0.626065 0.624163 0.622838 0.622068 0.621824 0.622078 0.622799 0.623955 0.625517 0.627454 0.629739 0.632347 0.635254 0.638438 0.641881 0.645564 0.649471 0.653587 0.657899 0.662395 0.667064 0.671895 0.676879 0.682007 0.687272 0.692666 0.698184 0.703818 0.709563 0.715414 0.721366 0.727415 0.733558 0.739789 0.746107 0.752508 0.758989 0.765548 0.772183 0.778892 0.785674 0.792526 0.799448 0.80644 0.813499 0.820627 0.827822 0.835085 0.842416 0.849815 0.857284 0.864823 0.872434 0.880117 0.887876 0.895711 0.903625 0.911622 0.919702 0.927871 0.936131 0.944486 0.952941 0.9615 0.970169 0.978952 0.987855 0.996886 1.00605 1.01536 1.02481 1.03443 1.04421 1.05417 1.06432 1.07467 1.08523 1.09602 1.10706 1.11835 1.12992 1.1418 1.15399 1.16652 1.17942 1.19272 1.20644 1.22063 1.23531 1.25054 1.26635 1.2828 1.29994 1.31783 1.33654 1.35613 1.37668 1.39826 1.42097 1.44486 
0.633077 0.630522 0.628547 0.627126 0.626235 0.625845 0.625928 0.626455 0.627398 0.628729 0.630422 0.632453 0.634799 0.637439 0.640354 0.643525 0.646937 0.650574 0.654423 0.658471 0.662707 0.66712 0.671701 0.67644 0.681328 0.68636 0.691527 0.696824 0.702244 0.707781 0.713432 0.719191 0.725054 0.731017 0.737077 0.743231 0.749476 0.755809 0.762229 0.768733 0.775319 0.781986 0.788733 0.79556 0.802465 0.809448 0.816509 0.823648 0.830866 0.838163 0.84554 0.852998 0.860539 0.868164 0.875875 0.883675 0.891567 0.899552 0.907635 0.915819 0.924108 0.932506 0.941017 0.949648 0.958403 0.967289 0.976311 0.985478 0.994796 1.00427 1.01392 1.02374 1.03376 1.04397 1.05439 1.06504 1.07593 1.08706 1.09847 1.11017 1.12217 1.1345 1.14718 1.16023 1.17369 1.18757 1.20192 1.21677 1.23215 1.24811 1.26469 1.28194 1.29992 1.31869 1.3383 1.35883 1.38034 1.40291 1.42661 1.45151 
0.640045 0.636856 0.634251 0.632205 0.630692 0.629686 0.629159 0.629085 0.629436 0.630187 0.631313 0.632791 0.634599 0.636715 0.639121 0.641799 0.644733 0.647908 0.651309 0.654924 0.658742 0.66275 0.666939 0.671301 0.675825 0.680505 0.685332 0.690301 0.695406 0.700639 0.705997 0.711475 0.717067 0.722771 0.728582 0.734497 0.740513 0.746628 0.752839 0.759145 0.765543 0.772032 0.778611 0.785279 0.792035 0.79888 0.805813 0.812834 0.819944 0.827144 0.834434 0.841816 0.849292 0.856863 0.864532 0.872302 0.880174 0.888153 0.896241 0.904444 0.912764 0.921207 0.929778 0.938482 0.947326 0.956316 0.965458 0.974761 0.984233 0.993883 1.00372 1.01375 1.02399 1.03446 1.04515 1.05609 1.06729 1.07877 1.09055 1.10264 1.11506 1.12783 1.14099 1.15455 1.16854 1.183 1.19795 1.21343 1.22948 1.24614 1.26346 1.28148 1.30026 1.31986 1.34033 1.36174 1.38416 1.40765 1.43229 1.45815 
0.64697 0.643167 0.639954 0.637305 0.635194 0.633596 0.632485 0.631835 0.63162 0.631816 0.632399 0.633346 0.634636 0.636249 0.638166 0.640369 0.642843 0.645571 0.64854 0.651736 0.655148 0.658765 0.662576 0.666571 0.670742 0.675081 0.67958 0.684232 0.68903 0.693969 0.699044 0.704248 0.709579 0.715031 0.720601 0.726285 0.73208 0.737984 0.743994 0.750108 0.756325 0.762642 0.769059 0.775575 0.78219 0.788902 0.795713 0.802621 0.809629 0.816737 0.823945 0.831256 0.838672 0.846193 0.853824 0.861566 0.869423 0.877398 0.885496 0.89372 0.902074 0.910565 0.919197 0.927977 0.936911 0.946005 0.955269 0.964709 0.974334 0.984154 0.994179 1.00442 1.01489 1.0256 1.03656 1.04779 1.0593 1.07112 1.08325 1.09572 1.10855 1.12176 1.13538 1.14943 1.16394 1.17895 1.19448 1.21057 1.22726 1.2446 1.26262 1.28137 1.30092 1.3213 1.34259 1.36484 1.38812 1.41248 1.43802 1.46478 
0.65385 0.649454 0.645654 0.642424 0.639738 0.637572 0.635901 0.634699 0.633941 0.633605 0.633667 0.634105 0.634898 0.636027 0.637473 0.639219 0.641248 0.643545 0.646097 0.648889 0.65191 0.655147 0.658592 0.662234 0.666063 0.670071 0.674252 0.678596 0.683099 0.687753 0.692553 0.697493 0.70257 0.707779 0.713115 0.718576 0.724158 0.729858 0.735674 0.741604 0.747646 0.753798 0.76006 0.76643 0.772908 0.779493 0.786187 0.792988 0.799899 0.806919 0.814051 0.821295 0.828654 0.836131 0.843727 0.851446 0.859291 0.867266 0.875375 0.883623 0.892014 0.900554 0.90925 0.918106 0.927131 0.936331 0.945716 0.955292 0.96507 0.97506 0.985272 0.995717 1.00641 1.01736 1.02858 1.0401 1.05192 1.06406 1.07654 1.08939 1.10261 1.11625 1.13032 1.14484 1.15986 1.17539 1.19148 1.20816 1.22547 1.24345 1.26214 1.2816 1.30186 1.323 1.34506 1.36811 1.3922 1.4174 1.44377 1.4714 
0.660686 0.655717 0.65135 0.64756 0.644322 0.64161 0.6394 0.637668 0.63639 0.635543 0.635105 0.635054 0.63537 0.636034 0.637027 0.638333 0.639934 0.641816 0.643964 0.646366 0.649009 0.651881 0.654971 0.658271 0.661769 0.665458 0.669331 0.673378 0.677594 0.681972 0.686506 0.691192 0.696023 0.700997 0.706108 0.711353 0.716729 0.722232 0.727861 0.733613 0.739487 0.74548 0.751592 0.757822 0.764169 0.770634 0.777216 0.783915 0.790734 0.797671 0.80473 0.811912 0.81922 0.826654 0.83422 0.841919 0.849755 0.857732 0.865856 0.87413 0.88256 0.891151 0.899911 0.908845 0.917962 0.927268 0.936773 0.946485 0.956415 0.966572 0.976969 0.987617 0.998528 1.00972 1.0212 1.03299 1.04511 1.05757 1.07039 1.0836 1.09722 1.11126 1.12577 1.14075 1.15625 1.1723 1.18893 1.20617 1.22407 1.24266 1.262 1.28212 1.30308 1.32493 1.34772 1.37152 1.39638 1.42237 1.44955 1.47799 
0.667476 0.661954 0.657041 0.652711 0.648941 0.645704 0.642977 0.640737 0.638959 0.637622 0.636704 0.636183 0.636041 0.636258 0.636815 0.637696 0.638886 0.640367 0.642127 0.644152 0.64643 0.648949 0.651698 0.654666 0.657845 0.661226 0.6648 0.66856 0.672499 0.67661 0.680888 0.685327 0.689921 0.694668 0.699561 0.704598 0.709774 0.715089 0.720537 0.726118 0.73183 0.73767 0.743639 0.749734 0.755957 0.762305 0.76878 0.775383 0.782113 0.788973 0.795964 0.803088 0.810347 0.817743 0.825281 0.832963 0.840793 0.848776 0.856916 0.865218 0.873689 0.882333 0.891158 0.900171 0.909379 0.918791 0.928416 0.938263 0.948343 0.958666 0.969245 0.980091 0.991219 1.00264 1.01438 1.02644 1.03885 1.05162 1.06478 1.07834 1.09233 1.10677 1.1217 1.13713 1.1531 1.16964 1.18678 1.20457 1.22303 1.24221 1.26216 1.28292 1.30454 1.32707 1.35056 1.37508 1.40067 1.42741 1.45535 1.48456 
0.674219 0.668164 0.662724 0.657875 0.653592 0.649851 0.646627 0.643898 0.64164 0.639832 0.638453 0.637481 0.636898 0.636685 0.636824 0.637297 0.638089 0.639186 0.640571 0.642233 0.644159 0.646337 0.648756 0.651405 0.654275 0.657358 0.660644 0.664127 0.667798 0.671652 0.675681 0.679882 0.684248 0.688775 0.693458 0.698294 0.703279 0.70841 0.713685 0.719101 0.724657 0.730351 0.736182 0.742149 0.748251 0.754489 0.760862 0.767372 0.77402 0.780806 0.787733 0.794802 0.802016 0.809378 0.816891 0.824559 0.832386 0.840376 0.848535 0.856867 0.865379 0.874077 0.882968 0.89206 0.90136 0.910877 0.920621 0.930602 0.94083 0.951317 0.962074 0.973116 0.984456 0.996109 1.00809 1.02042 1.03311 1.04618 1.05966 1.07357 1.08792 1.10275 1.11808 1.13395 1.15037 1.16738 1.18502 1.20332 1.22233 1.24208 1.26261 1.28397 1.30622 1.3294 1.35356 1.37875 1.40505 1.43249 1.46116 1.4911 
0.680915 0.674345 0.668397 0.663048 0.658272 0.654045 0.650343 0.647144 0.644426 0.642166 0.640343 0.638939 0.637932 0.637306 0.637041 0.637122 0.637533 0.638258 0.639283 0.640595 0.642182 0.64403 0.646131 0.648472 0.651045 0.65384 0.656848 0.660063 0.663476 0.667081 0.670871 0.674842 0.678987 0.683302 0.687783 0.692425 0.697225 0.702181 0.707289 0.712546 0.717953 0.723506 0.729204 0.735047 0.741035 0.747167 0.753444 0.759866 0.766435 0.773151 0.780017 0.787036 0.794209 0.801539 0.809031 0.816687 0.824513 0.832513 0.840692 0.849055 0.85761 0.866363 0.87532 0.884491 0.893882 0.903504 0.913366 0.923479 0.933853 0.9445 0.955434 0.966667 0.978214 0.99009 1.00231 1.0149 1.02787 1.04124 1.05503 1.06927 1.08397 1.09918 1.1149 1.13117 1.14803 1.1655 1.18362 1.20242 1.22194 1.24223 1.26332 1.28527 1.30811 1.3319 1.35669 1.38254 1.4095 1.43762 1.46697 1.49761 
0.687562 0.680495 0.674059 0.668227 0.662977 0.658282 0.654121 0.650471 0.647309 0.644615 0.642367 0.640546 0.639133 0.638109 0.637457 0.63716 0.637204 0.637571 0.638249 0.639225 0.640484 0.642016 0.64381 0.645854 0.64814 0.650657 0.653398 0.656354 0.659518 0.662883 0.666443 0.670191 0.674124 0.678235 0.68252 0.686976 0.691598 0.696385 0.701332 0.706437 0.7117 0.717118 0.722689 0.728414 0.734293 0.740324 0.746508 0.752847 0.759341 0.765991 0.772801 0.779772 0.786907 0.794208 0.801681 0.809329 0.817155 0.825166 0.833367 0.841763 0.850362 0.85917 0.868194 0.877443 0.886925 0.896651 0.906629 0.916872 0.927389 0.938194 0.9493 0.96072 0.972469 0.984564 0.997021 1.00986 1.02309 1.03675 1.05085 1.06541 1.08045 1.09602 1.11212 1.12879 1.14606 1.16397 1.18255 1.20182 1.22184 1.24265 1.26428 1.28677 1.31019 1.33457 1.35996 1.38642 1.41401 1.44278 1.47278 1.50409 
0.694159 0.686614 0.679706 0.67341 0.667702 0.662559 0.657956 0.653872 0.650284 0.647172 0.644516 0.642294 0.64049 0.639085 0.63806 0.637401 0.637091 0.637115 0.637459 0.63811 0.639055 0.640282 0.64178 0.643538 0.645547 0.647797 0.650279 0.652986 0.65591 0.659044 0.662382 0.665917 0.669644 0.673559 0.677656 0.681932 0.686384 0.691007 0.6958 0.700759 0.705884 0.711172 0.716622 0.722234 0.728007 0.733942 0.740038 0.746298 0.752721 0.75931 0.766066 0.772993 0.780092 0.787368 0.794824 0.802465 0.810295 0.818319 0.826542 0.834972 0.843615 0.852478 0.861569 0.870896 0.880469 0.890296 0.900389 0.910759 0.921418 0.932377 0.943651 0.955254 0.967201 0.979508 0.992193 1.00527 1.01877 1.0327 1.04709 1.06196 1.07734 1.09325 1.10972 1.12677 1.14445 1.16278 1.18179 1.20152 1.22202 1.24332 1.26546 1.28848 1.31244 1.33738 1.36335 1.3904 1.41859 1.44797 1.47859 1.51053 
0.700704 0.692698 0.685336 0.678594 0.672446 0.66687 0.661843 0.657341 0.653344 0.649831 0.646782 0.644176 0.641996 0.640224 0.638842 0.637834 0.637184 0.636878 0.636901 0.63724 0.637882 0.638815 0.640029 0.641512 0.643254 0.645246 0.64748 0.649947 0.65264 0.655551 0.658675 0.662004 0.665534 0.66926 0.673176 0.67728 0.681567 0.686033 0.690678 0.695497 0.700489 0.705653 0.710987 0.716491 0.722164 0.728007 0.73402 0.740204 0.74656 0.75309 0.759797 0.766682 0.773749 0.781002 0.788444 0.796079 0.803914 0.811952 0.8202 0.828664 0.837352 0.84627 0.855427 0.864831 0.874493 0.884421 0.894627 0.905122 0.915918 0.927029 0.938467 0.950248 0.962387 0.974901 0.987808 1.00113 1.01487 1.02907 1.04375 1.05892 1.07461 1.09086 1.10768 1.1251 1.14316 1.16189 1.18133 1.2015 1.22245 1.24422 1.26685 1.29037 1.31485 1.34032 1.36684 1.39445 1.42321 1.45317 1.48439 1.51693 
0.707197 0.698746 0.690947 0.683775 0.677204 0.671212 0.665776 0.660874 0.656484 0.652586 0.649159 0.646184 0.643643 0.641519 0.639793 0.63845 0.637473 0.63685 0.636564 0.636603 0.636954 0.637605 0.638545 0.639763 0.641249 0.642993 0.644988 0.647224 0.649695 0.652392 0.655309 0.658441 0.661781 0.665325 0.669067 0.673005 0.677134 0.681451 0.685952 0.690637 0.695502 0.700547 0.70577 0.711171 0.716748 0.722504 0.728437 0.734549 0.740842 0.747317 0.753977 0.760824 0.767861 0.775093 0.782523 0.790155 0.797995 0.806049 0.814322 0.822821 0.831554 0.840527 0.84975 0.859231 0.86898 0.879007 0.889324 0.899941 0.910872 0.92213 0.933728 0.945682 0.958008 0.970723 0.983844 0.997391 1.01138 1.02584 1.04079 1.05625 1.07225 1.08882 1.10598 1.12375 1.14219 1.1613 1.18114 1.20173 1.22312 1.24534 1.26843 1.29244 1.31741 1.34339 1.37043 1.39857 1.42788 1.4584 1.49018 1.5233 
0.713635 0.704757 0.696537 0.688951 0.681973 0.675582 0.669753 0.664465 0.659698 0.655429 0.65164 0.648311 0.645424 0.64296 0.640905 0.639239 0.63795 0.637021 0.636438 0.636189 0.63626 0.63664 0.637317 0.63828 0.63952 0.641027 0.642791 0.644806 0.647062 0.649553 0.652273 0.655214 0.658372 0.661741 0.665317 0.669095 0.673073 0.677245 0.68161 0.686166 0.69091 0.695841 0.700958 0.70626 0.711746 0.717418 0.723276 0.72932 0.735553 0.741977 0.748592 0.755404 0.762414 0.769626 0.777046 0.784677 0.792524 0.800594 0.808893 0.817428 0.826205 0.835233 0.844521 0.854077 0.863912 0.874037 0.884461 0.895198 0.906261 0.917662 0.929416 0.941538 0.954046 0.966955 0.980284 0.994053 1.00828 1.02299 1.0382 1.05395 1.07024 1.08711 1.10459 1.12271 1.1415 1.16099 1.18121 1.2022 1.22401 1.24665 1.27019 1.29466 1.3201 1.34657 1.3741 1.40276 1.43258 1.46363 1.49595 1.52961 
0.720019 0.710729 0.702104 0.694119 0.686751 0.679974 0.673768 0.668111 0.66298 0.658356 0.654219 0.650549 0.64733 0.644542 0.642169 0.640195 0.638605 0.637383 0.636516 0.63599 0.635792 0.635911 0.636336 0.637055 0.638058 0.639335 0.640879 0.64268 0.644731 0.647025 0.649554 0.652313 0.655296 0.658498 0.661913 0.665539 0.66937 0.673405 0.67764 0.682072 0.6867 0.691522 0.696537 0.701744 0.707145 0.712737 0.718523 0.724503 0.73068 0.737054 0.743629 0.750407 0.757392 0.764587 0.771998 0.779629 0.787485 0.795572 0.803897 0.812467 0.821289 0.830372 0.839724 0.849354 0.859274 0.869493 0.880023 0.890877 0.902067 0.913607 0.925512 0.937798 0.950481 0.963579 0.977109 0.991092 1.00555 1.0205 1.03597 1.05198 1.06855 1.08572 1.10352 1.12196 1.14109 1.16093 1.18152 1.2029 1.2251 1.24816 1.27212 1.29703 1.32292 1.34985 1.37786 1.40699 1.43731 1.46887 1.50171 1.53589 
0.726347 0.716661 0.707646 0.699278 0.691533 0.684387 0.677819 0.671805 0.666326 0.661361 0.65689 0.652894 0.649355 0.646256 0.643579 0.641309 0.63943 0.637927 0.636787 0.635995 0.63554 0.635409 0.635591 0.636075 0.636851 0.637909 0.639241 0.640838 0.642692 0.644796 0.647142 0.649726 0.652541 0.655582 0.658844 0.662324 0.666016 0.669918 0.674028 0.678342 0.682859 0.687577 0.692495 0.697613 0.70293 0.708448 0.714165 0.720085 0.726208 0.732536 0.739072 0.74582 0.752782 0.759962 0.767366 0.774998 0.782863 0.790969 0.79932 0.807925 0.816792 0.825928 0.835343 0.845046 0.855048 0.86536 0.875993 0.88696 0.898274 0.90995 0.922002 0.934446 0.947299 0.960578 0.974302 0.988492 1.00317 1.01835 1.03406 1.05033 1.06718 1.08464 1.10273 1.12149 1.14094 1.16112 1.18207 1.20381 1.22639 1.24984 1.27421 1.29953 1.32585 1.35322 1.38168 1.41128 1.44207 1.47411 1.50743 1.54211 
0.732618 0.72255 0.71316 0.704424 0.696317 0.688817 0.6819 0.675546 0.669732 0.66444 0.659648 0.655339 0.651494 0.648096 0.645128 0.642574 0.640418 0.638646 0.637243 0.636197 0.635495 0.635124 0.635074 0.635333 0.635891 0.636739 0.637868 0.639268 0.640933 0.642855 0.645027 0.647443 0.650098 0.652985 0.6561 0.659439 0.662998 0.666774 0.670764 0.674965 0.679376 0.683995 0.688821 0.693853 0.699092 0.704538 0.710191 0.716053 0.722125 0.72841 0.734911 0.74163 0.748571 0.755738 0.763136 0.77077 0.778646 0.786769 0.795148 0.803788 0.812698 0.821887 0.831364 0.841138 0.851221 0.861623 0.872356 0.883433 0.894868 0.906674 0.918868 0.931465 0.944482 0.957936 0.971848 0.986236 1.00112 1.01653 1.03248 1.04899 1.0661 1.08383 1.10221 1.12127 1.14103 1.16154 1.18282 1.20492 1.22786 1.25168 1.27644 1.30216 1.32889 1.35668 1.38557 1.41561 1.44685 1.47934 1.51314 1.54829 
0.73883 0.728396 0.718645 0.709555 0.701101 0.69326 0.686009 0.679327 0.673193 0.667586 0.662488 0.657879 0.653741 0.650056 0.646809 0.643982 0.641561 0.639531 0.637878 0.636588 0.635649 0.635049 0.634776 0.63482 0.635169 0.635816 0.636749 0.637962 0.639446 0.641194 0.643199 0.645455 0.647955 0.650695 0.653669 0.656874 0.660306 0.663961 0.667837 0.67193 0.67624 0.680764 0.685503 0.690454 0.695618 0.700996 0.706588 0.712395 0.71842 0.724665 0.731132 0.737824 0.744746 0.751901 0.759295 0.766932 0.774819 0.782961 0.791366 0.800042 0.808995 0.818236 0.827773 0.837617 0.847777 0.858267 0.869097 0.880281 0.891833 0.903766 0.916097 0.928841 0.942016 0.955639 0.969731 0.984311 0.9994 1.01502 1.03119 1.04795 1.06531 1.0833 1.10195 1.1213 1.14136 1.16218 1.18378 1.20621 1.22949 1.25368 1.2788 1.3049 1.33202 1.36021 1.38951 1.41997 1.45164 1.48457 1.51881 1.55442 
0.744983 0.734196 0.7241 0.71467 0.705882 0.697714 0.690142 0.683147 0.676705 0.670798 0.665405 0.660508 0.656089 0.652131 0.648616 0.645529 0.642854 0.640577 0.638684 0.637161 0.635995 0.635175 0.634689 0.634526 0.634677 0.63513 0.635878 0.636911 0.638222 0.639804 0.641649 0.643751 0.646104 0.648703 0.651543 0.65462 0.657931 0.66147 0.665237 0.669228 0.673441 0.677876 0.68253 0.687404 0.692498 0.697811 0.703345 0.709101 0.715081 0.721288 0.727723 0.734392 0.741296 0.748441 0.755831 0.763473 0.771371 0.779532 0.787964 0.796674 0.80567 0.814961 0.824557 0.834468 0.844705 0.85528 0.866204 0.877491 0.889155 0.901211 0.913673 0.92656 0.939887 0.953673 0.967938 0.982701 0.997985 1.01381 1.0302 1.04718 1.06478 1.08303 1.10194 1.12156 1.1419 1.16302 1.18493 1.20768 1.23129 1.25582 1.28129 1.30775 1.33524 1.36381 1.39351 1.42437 1.45644 1.48979 1.52445 1.56049 
0.751076 0.73995 0.729521 0.719765 0.710658 0.702176 0.694297 0.687 0.680264 0.674069 0.668394 0.663222 0.658534 0.654314 0.650543 0.647207 0.644289 0.641776 0.639653 0.637907 0.636525 0.635495 0.634806 0.634446 0.634406 0.634675 0.635245 0.636107 0.637253 0.638675 0.640367 0.642323 0.644535 0.647 0.649713 0.652668 0.655862 0.659292 0.662955 0.666848 0.67097 0.675319 0.679894 0.684694 0.689721 0.694973 0.700452 0.70616 0.712098 0.718269 0.724676 0.731321 0.73821 0.745346 0.752734 0.76038 0.76829 0.77647 0.784928 0.793672 0.80271 0.81205 0.821704 0.83168 0.841991 0.852648 0.863663 0.87505 0.886822 0.898996 0.911585 0.924608 0.938082 0.952024 0.966455 0.981394 0.996864 1.01289 1.02949 1.04669 1.06451 1.083 1.10216 1.12204 1.14266 1.16405 1.18626 1.20931 1.23324 1.25809 1.28389 1.3107 1.33855 1.36748 1.39754 1.42878 1.46125 1.49499 1.53006 1.56651 
0.757108 0.745657 0.734909 0.72484 0.715425 0.706643 0.69847 0.690885 0.683867 0.677396 0.671452 0.666017 0.661072 0.656601 0.652586 0.649011 0.645862 0.643123 0.640781 0.638822 0.637234 0.636003 0.635119 0.634572 0.634349 0.634443 0.634843 0.635541 0.636529 0.6378 0.639347 0.641162 0.643241 0.645579 0.648169 0.651008 0.654092 0.657417 0.660981 0.664781 0.668816 0.673084 0.677584 0.682315 0.687277 0.692472 0.6979 0.703562 0.709461 0.715598 0.721978 0.728602 0.735477 0.742605 0.749991 0.757643 0.765565 0.773764 0.782249 0.791026 0.800104 0.809493 0.819202 0.829242 0.839624 0.85036 0.861462 0.872945 0.884822 0.897109 0.909821 0.922975 0.936588 0.95068 0.96527 0.980378 0.996027 1.01224 1.02904 1.04644 1.06449 1.0832 1.1026 1.12273 1.14361 1.16527 1.18776 1.2111 1.23532 1.26048 1.28661 1.31374 1.34193 1.3712 1.40162 1.43322 1.46606 1.50018 1.53564 1.57248 
0.763078 0.751315 0.740261 0.729891 0.720183 0.711113 0.702659 0.694798 0.68751 0.680776 0.674574 0.668888 0.663697 0.658987 0.654738 0.650937 0.647566 0.644613 0.642061 0.639899 0.638113 0.636692 0.635623 0.634896 0.6345 0.634426 0.634665 0.635207 0.636045 0.637172 0.63858 0.640262 0.642214 0.64443 0.646904 0.649632 0.652611 0.655837 0.659308 0.66302 0.666972 0.671163 0.675591 0.680257 0.685159 0.6903 0.695679 0.701298 0.70716 0.713266 0.71962 0.726226 0.733087 0.740208 0.747594 0.755252 0.763186 0.771405 0.779915 0.788724 0.797842 0.807277 0.81704 0.827141 0.837592 0.848404 0.859591 0.871166 0.883144 0.895539 0.908368 0.921647 0.935395 0.94963 0.964372 0.979642 0.99546 1.01185 1.02884 1.04644 1.0647 1.08363 1.10326 1.12362 1.14475 1.16667 1.18942 1.21303 1.23754 1.263 1.28942 1.31687 1.34537 1.37498 1.40573 1.43768 1.47087 1.50535 1.54117 1.57838 
0.768985 0.756922 0.745575 0.734919 0.72493 0.715584 0.70686 0.698736 0.691191 0.684205 0.677757 0.671831 0.666407 0.661468 0.656997 0.652979 0.649398 0.646239 0.643488 0.641133 0.639159 0.637556 0.636311 0.635413 0.634852 0.634619 0.634704 0.635098 0.635793 0.636783 0.638059 0.639615 0.641446 0.643546 0.64591 0.648534 0.651413 0.654545 0.657927 0.661556 0.66543 0.669547 0.673908 0.678512 0.683358 0.688447 0.69378 0.699359 0.705186 0.711263 0.717594 0.724182 0.731032 0.738147 0.745533 0.753197 0.761144 0.769381 0.777916 0.786757 0.795913 0.805394 0.815209 0.825369 0.835886 0.846771 0.858039 0.869703 0.881776 0.894275 0.907216 0.920615 0.934492 0.948863 0.963751 0.979174 0.995155 1.01172 1.02888 1.04668 1.06513 1.08427 1.10411 1.1247 1.14606 1.16823 1.19123 1.2151 1.23989 1.26562 1.29233 1.32007 1.34888 1.3788 1.40987 1.44215 1.47567 1.51049 1.54666 1.58424 
0.774828 0.762479 0.750851 0.73992 0.729662 0.720054 0.711073 0.702697 0.694906 0.68768 0.680998 0.674843 0.669196 0.664039 0.659357 0.655133 0.651351 0.647997 0.645057 0.642518 0.640366 0.63859 0.637177 0.636117 0.6354 0.635015 0.634954 0.635207 0.635768 0.636627 0.637778 0.639215 0.640931 0.642921 0.645181 0.647705 0.650491 0.653533 0.656831 0.660381 0.664181 0.66823 0.672527 0.677072 0.681865 0.686906 0.692196 0.697737 0.703532 0.709582 0.715891 0.722463 0.729302 0.736412 0.7438 0.75147 0.759429 0.767685 0.776244 0.785116 0.794309 0.803833 0.813698 0.823915 0.834495 0.845451 0.856796 0.868544 0.88071 0.893308 0.906356 0.91987 0.933868 0.94837 0.963395 0.978965 0.995101 1.01183 1.02916 1.04714 1.06578 1.08511 1.10516 1.12597 1.14755 1.16994 1.19319 1.21731 1.24235 1.26834 1.29533 1.32335 1.35245 1.38266 1.41404 1.44663 1.48047 1.51562 1.55212 1.59003 
0.780606 0.767983 0.756087 0.744894 0.734379 0.72452 0.715293 0.706678 0.698653 0.691198 0.684293 0.67792 0.672061 0.666698 0.661814 0.657394 0.653422 0.649883 0.646763 0.64405 0.641728 0.639788 0.638217 0.637003 0.636137 0.635609 0.63541 0.63553 0.635962 0.636698 0.637731 0.639054 0.640662 0.642549 0.64471 0.64714 0.649837 0.652795 0.656014 0.659489 0.663219 0.667204 0.671441 0.675931 0.680673 0.685669 0.690919 0.696425 0.702189 0.708215 0.714504 0.721061 0.72789 0.734996 0.742385 0.750062 0.758033 0.766307 0.774891 0.783792 0.793021 0.802587 0.812499 0.82277 0.833411 0.844435 0.855854 0.867682 0.879935 0.892628 0.905777 0.9194 0.933515 0.948141 0.963297 0.979006 0.995289 1.01217 1.02967 1.04781 1.06663 1.08615 1.1064 1.1274 1.1492 1.17181 1.19528 1.21964 1.24492 1.27117 1.29841 1.3267 1.35607 1.38657 1.41823 1.45111 1.48526 1.52071 1.55753 1.59576 