# vtk DataFile Version 3.0
cell
ASCII
DATASET STRUCTURED_POINTS
DIMENSIONS 100 100 1
ORIGIN 0 0 0
SPACING 0.010000 0.010000 1
POINT_DATA 10000
SCALARS sample_scalars double
LOOKUP_TABLE default
0.557657 0.563959 0.572167 0.581139 0.590463 0.599971 0.609582 0.619257 0.62897 0.638708 0.64846 0.65822 0.667983 0.677745 0.687503 0.697255 0.706998 0.716729 0.726449 0.736155 0.745845 0.755518 0.765174 0.77481 0.784426 0.79402 0.803591 0.813139 0.822662 0.83216 0.84163 0.851073 0.860486 0.86987 0.879223 0.888545 0.897833 0.907088 0.916309 0.925493 0.934642 0.943753 0.952825 0.961859 0.970852 0.979804 0.988715 0.997582 1.00641 1.01519 1.02392 1.03261 1.04125 1.04984 1.05839 1.06688 1.07532 1.08372 1.09206 1.10034 1.10858 1.11676 1.12488 1.13295 1.14096 1.14892 1.15681 1.16465 1.17242 1.18014 1.1878 1.19539 1.20292 1.21039 1.21779 1.22513 1.2324 1.23961 1.24675 1.25383 1.26083 1.26777 1.27465 1.28145 1.28819 1.29486 1.30146 1.30799 1.31446 1.32086 1.3272 1.33348 1.3397 1.34589 1.35205 1.35821 1.36443 1.37084 1.37775 1.38601 
0.569452 0.575755 0.583411 0.591867 0.600789 0.609991 0.619368 0.628859 0.638426 0.648044 0.657697 0.667374 0.677067 0.686768 0.696473 0.706178 0.715879 0.725575 0.735262 0.744938 0.754602 0.764251 0.773885 0.783501 0.793099 0.802677 0.812233 0.821767 0.831277 0.840762 0.850221 0.859653 0.869058 0.878433 0.887778 0.897091 0.906373 0.915622 0.924836 0.934015 0.943158 0.952265 0.961333 0.970363 0.979353 0.988302 0.99721 1.00608 1.0149 1.02367 1.03241 1.04109 1.04973 1.05833 1.06687 1.07537 1.08381 1.0922 1.10055 1.10883 1.11707 1.12525 1.13338 1.14145 1.14947 1.15742 1.16532 1.17317 1.18095 1.18867 1.19633 1.20393 1.21147 1.21895 1.22636 1.23371 1.241 1.24822 1.25538 1.26247 1.26949 1.27646 1.28335 1.29018 1.29695 1.30365 1.31029 1.31687 1.32339 1.32985 1.33626 1.34263 1.34897 1.35529 1.36162 1.36801 1.37454 1.38134 1.38866 1.39691 
0.579286 0.586141 0.593798 0.602071 0.610776 0.619776 0.628979 0.638323 0.647767 0.657281 0.666846 0.676447 0.686074 0.695718 0.705373 0.715034 0.724696 0.734357 0.744012 0.75366 0.763299 0.772925 0.782537 0.792134 0.801714 0.811275 0.820816 0.830336 0.839834 0.849307 0.858755 0.868177 0.877572 0.886939 0.896275 0.905582 0.914856 0.924098 0.933307 0.942481 0.951619 0.960721 0.969785 0.978811 0.987797 0.996744 1.00565 1.01451 1.02333 1.03211 1.04084 1.04952 1.05816 1.06676 1.0753 1.08379 1.09224 1.10063 1.10898 1.11727 1.12551 1.13369 1.14182 1.1499 1.15791 1.16588 1.17378 1.18163 1.18942 1.19714 1.20481 1.21242 1.21997 1.22745 1.23488 1.24224 1.24954 1.25677 1.26394 1.27105 1.2781 1.28508 1.29199 1.29885 1.30564 1.31238 1.31905 1.32567 1.33224 1.33876 1.34524 1.35168 1.35811 1.36454 1.37101 1.37755 1.38424 1.39117 1.39849 1.40633 
0.588297 0.59567 0.60351 0.611784 0.620407 0.629298 0.638388 0.647626 0.656973 0.666402 0.675892 0.685428 0.694996 0.704589 0.714198 0.723818 0.733444 0.743071 0.752697 0.762318 0.771932 0.781536 0.791127 0.800706 0.810268 0.819814 0.82934 0.838846 0.848331 0.857793 0.867231 0.876643 0.886028 0.895386 0.904715 0.914014 0.923282 0.932518 0.94172 0.950889 0.960022 0.969119 0.97818 0.987202 0.996185 1.00513 1.01403 1.02289 1.03171 1.04048 1.04921 1.0579 1.06654 1.07513 1.08367 1.09217 1.10061 1.10901 1.11735 1.12565 1.13389 1.14207 1.1502 1.15828 1.1663 1.17427 1.18218 1.19003 1.19782 1.20556 1.21323 1.22085 1.22841 1.2359 1.24333 1.2507 1.25801 1.26526 1.27245 1.27957 1.28663 1.29363 1.30057 1.30745 1.31427 1.32104 1.32775 1.3344 1.34101 1.34758 1.35411 1.36062 1.36712 1.37363 1.38018 1.3868 1.39355 1.40048 1.40766 1.41511 
0.596897 0.604672 0.61273 0.621086 0.62971 0.638558 0.647585 0.656754 0.666033 0.675397 0.684827 0.694307 0.703826 0.713373 0.722942 0.732525 0.742117 0.751714 0.761312 0.770908 0.780498 0.790081 0.799653 0.809214 0.81876 0.82829 0.837802 0.847295 0.856768 0.866219 0.875646 0.885048 0.894425 0.903774 0.913095 0.922387 0.931648 0.940878 0.950075 0.959238 0.968367 0.977459 0.986515 0.995534 1.00451 1.01345 1.02235 1.03121 1.04003 1.0488 1.05753 1.06621 1.07485 1.08344 1.09199 1.10048 1.10893 1.11732 1.12567 1.13396 1.14221 1.15039 1.15853 1.16661 1.17464 1.18261 1.19052 1.19838 1.20617 1.21391 1.2216 1.22922 1.23678 1.24428 1.25173 1.25911 1.26643 1.27369 1.28089 1.28803 1.29511 1.30212 1.30908 1.31598 1.32283 1.32962 1.33636 1.34305 1.34969 1.3563 1.36288 1.36944 1.37599 1.38255 1.38914 1.39579 1.40254 1.40941 1.41642 1.42357 
0.605251 0.613333 0.621594 0.63006 0.638728 0.647576 0.656578 0.665708 0.674942 0.684259 0.693643 0.70308 0.712557 0.722066 0.731599 0.74115 0.750712 0.760282 0.769854 0.779427 0.788996 0.798558 0.808113 0.817656 0.827186 0.836702 0.846201 0.855681 0.865142 0.874582 0.883999 0.893392 0.90276 0.912101 0.921415 0.9307 0.939954 0.949178 0.958369 0.967527 0.976651 0.98574 0.994792 1.00381 1.01278 1.02172 1.03062 1.03947 1.04829 1.05706 1.06579 1.07447 1.08311 1.0917 1.10024 1.10874 1.11718 1.12558 1.13393 1.14222 1.15047 1.15866 1.16679 1.17488 1.18291 1.19088 1.1988 1.20666 1.21446 1.22221 1.2299 1.23753 1.2451 1.25261 1.26006 1.26745 1.27478 1.28205 1.28927 1.29642 1.30351 1.31055 1.31752 1.32444 1.33131 1.33812 1.34489 1.3516 1.35828 1.36492 1.37153 1.37812 1.3847 1.39129 1.3979 1.40456 1.41127 1.41805 1.42492 1.43183 
0.613438 0.621755 0.630191 0.638771 0.647502 0.656376 0.665379 0.674493 0.683701 0.692988 0.702339 0.711742 0.721187 0.730665 0.740168 0.74969 0.759226 0.768771 0.778321 0.787872 0.797421 0.806966 0.816503 0.82603 0.835546 0.845048 0.854534 0.864003 0.873452 0.882882 0.892289 0.901673 0.911033 0.920366 0.929672 0.93895 0.948199 0.957416 0.966602 0.975755 0.984875 0.993959 1.00301 1.01202 1.02099 1.02993 1.03882 1.04767 1.05649 1.06526 1.07398 1.08266 1.0913 1.09989 1.10843 1.11693 1.12538 1.13378 1.14212 1.15042 1.15867 1.16686 1.175 1.18309 1.19112 1.19909 1.20702 1.21488 1.22269 1.23044 1.23814 1.24577 1.25335 1.26087 1.26833 1.27573 1.28307 1.29035 1.29757 1.30474 1.31185 1.3189 1.32589 1.33283 1.33971 1.34654 1.35333 1.36007 1.36677 1.37343 1.38007 1.38668 1.39328 1.39988 1.40649 1.41312 1.41979 1.42649 1.43321 1.43995 
0.621497 0.629999 0.638582 0.647269 0.65607 0.664984 0.674003 0.683118 0.692315 0.701585 0.710914 0.720293 0.729713 0.739165 0.748644 0.758143 0.767656 0.77718 0.78671 0.796242 0.805773 0.815301 0.824822 0.834335 0.843837 0.853326 0.8628 0.872258 0.881697 0.891116 0.900515 0.90989 0.919241 0.928567 0.937867 0.947138 0.95638 0.965592 0.974773 0.983921 0.993036 1.00212 1.01116 1.02017 1.02914 1.03807 1.04696 1.05581 1.06462 1.07339 1.08212 1.0908 1.09943 1.10802 1.11657 1.12506 1.13351 1.14191 1.15026 1.15856 1.1668 1.175 1.18314 1.19123 1.19927 1.20725 1.21517 1.22304 1.23085 1.23861 1.24631 1.25395 1.26154 1.26906 1.27653 1.28394 1.29129 1.29858 1.30581 1.31299 1.32011 1.32717 1.33418 1.34113 1.34803 1.35488 1.36168 1.36844 1.37516 1.38184 1.38849 1.39512 1.40172 1.40832 1.41492 1.42152 1.42813 1.43475 1.44136 1.44796 
0.629451 0.6381 0.646807 0.655591 0.664461 0.67342 0.682466 0.691592 0.70079 0.710052 0.719369 0.728732 0.738134 0.747567 0.757027 0.766506 0.776001 0.785506 0.795019 0.804534 0.81405 0.823562 0.833069 0.842569 0.852058 0.861535 0.870998 0.880445 0.889874 0.899284 0.908674 0.918041 0.927385 0.936704 0.945996 0.955261 0.964498 0.973704 0.98288 0.992024 1.00113 1.01021 1.01925 1.02826 1.03722 1.04615 1.05504 1.06389 1.0727 1.08147 1.09019 1.09887 1.1075 1.11609 1.12464 1.13313 1.14158 1.14998 1.15833 1.16663 1.17488 1.18308 1.19122 1.19931 1.20735 1.21533 1.22326 1.23114 1.23895 1.24671 1.25442 1.26207 1.26966 1.27719 1.28466 1.29208 1.29944 1.30674 1.31398 1.32117 1.3283 1.33537 1.34239 1.34936 1.35627 1.36313 1.36995 1.37672 1.38345 1.39014 1.3968 1.40343 1.41004 1.41663 1.4232 1.42977 1.43632 1.44287 1.44939 1.45588 
0.637311 0.64608 0.654892 0.663762 0.672698 0.681705 0.690782 0.699927 0.709133 0.718395 0.727707 0.73706 0.74645 0.75587 0.765315 0.774779 0.784258 0.793749 0.803246 0.812747 0.822248 0.831748 0.841242 0.850729 0.860207 0.869673 0.879126 0.888563 0.897983 0.907385 0.916766 0.926125 0.935462 0.944774 0.95406 0.963319 0.97255 0.981751 0.990922 1.00006 1.00917 1.01824 1.02728 1.03628 1.04524 1.05417 1.06306 1.0719 1.08071 1.08948 1.0982 1.10688 1.11551 1.1241 1.13264 1.14114 1.14959 1.15799 1.16634 1.17464 1.18289 1.19109 1.19923 1.20733 1.21537 1.22336 1.23129 1.23917 1.24699 1.25475 1.26246 1.27011 1.27771 1.28525 1.29273 1.30015 1.30752 1.31483 1.32208 1.32928 1.33641 1.3435 1.35053 1.3575 1.36443 1.3713 1.37813 1.38491 1.39164 1.39834 1.405 1.41163 1.41823 1.4248 1.43136 1.43788 1.44439 1.45087 1.45731 1.46371 
0.645086 0.653955 0.662857 0.671802 0.680799 0.689853 0.698964 0.708131 0.717351 0.726619 0.735931 0.745281 0.754664 0.764074 0.773508 0.782961 0.792428 0.801906 0.81139 0.820879 0.830369 0.839856 0.849339 0.858816 0.868283 0.877739 0.887182 0.89661 0.906022 0.915416 0.924789 0.934142 0.943471 0.952777 0.962057 0.97131 0.980536 0.989732 0.998899 1.00803 1.01714 1.0262 1.03524 1.04424 1.0532 1.06212 1.07101 1.07985 1.08866 1.09742 1.10614 1.11482 1.12345 1.13204 1.14058 1.14908 1.15753 1.16593 1.17428 1.18258 1.19083 1.19903 1.20718 1.21528 1.22332 1.23131 1.23925 1.24713 1.25495 1.26272 1.27044 1.27809 1.2857 1.29324 1.30073 1.30816 1.31553 1.32285 1.3301 1.33731 1.34445 1.35155 1.35858 1.36557 1.3725 1.37938 1.38621 1.393 1.39974 1.40644 1.4131 1.41972 1.42631 1.43287 1.43939 1.44588 1.45234 1.45876 1.46514 1.47146 
0.652782 0.661735 0.670712 0.679725 0.688778 0.697876 0.707021 0.716213 0.72545 0.734728 0.744045 0.753395 0.762775 0.77218 0.781607 0.791051 0.800509 0.809977 0.819451 0.82893 0.838409 0.847887 0.85736 0.866827 0.876285 0.885732 0.895166 0.904586 0.91399 0.923376 0.932743 0.942088 0.951412 0.960711 0.969986 0.979234 0.988454 0.997646 1.00681 1.01594 1.02504 1.0341 1.04313 1.05213 1.06109 1.07001 1.07889 1.08773 1.09654 1.1053 1.11402 1.1227 1.13133 1.13992 1.14846 1.15696 1.1654 1.17381 1.18216 1.19046 1.19871 1.20692 1.21507 1.22316 1.23121 1.2392 1.24714 1.25502 1.26285 1.27063 1.27834 1.28601 1.29361 1.30116 1.30865 1.31609 1.32347 1.33079 1.33805 1.34526 1.35242 1.35951 1.36656 1.37355 1.38049 1.38737 1.39421 1.401 1.40774 1.41444 1.42109 1.42771 1.43428 1.44082 1.44732 1.45378 1.46019 1.46656 1.47288 1.47913 
0.6604 0.669425 0.678469 0.68754 0.696644 0.705785 0.714963 0.724181 0.733436 0.742727 0.752052 0.761406 0.770786 0.780189 0.789612 0.79905 0.808501 0.817962 0.827428 0.836898 0.846369 0.855838 0.865303 0.874761 0.884211 0.89365 0.903077 0.91249 0.921886 0.931265 0.940626 0.949965 0.959282 0.968576 0.977845 0.987089 0.996304 1.00549 1.01465 1.02378 1.03287 1.04193 1.05096 1.05995 1.06891 1.07783 1.08671 1.09555 1.10435 1.11311 1.12183 1.13051 1.13914 1.14773 1.15627 1.16476 1.17321 1.18162 1.18997 1.19827 1.20653 1.21473 1.22288 1.23098 1.23903 1.24702 1.25496 1.26285 1.27068 1.27846 1.28618 1.29385 1.30146 1.30901 1.31651 1.32395 1.33133 1.33866 1.34593 1.35314 1.3603 1.3674 1.37445 1.38145 1.38839 1.39528 1.40212 1.40891 1.41565 1.42234 1.42899 1.4356 1.44215 1.44867 1.45514 1.46157 1.46794 1.47427 1.48053 1.48673 
0.667945 0.677031 0.686133 0.695256 0.704406 0.713586 0.722797 0.73204 0.741315 0.750621 0.759955 0.769315 0.778699 0.788103 0.797524 0.806959 0.816405 0.82586 0.83532 0.844784 0.854248 0.863709 0.873167 0.882618 0.892061 0.901493 0.910913 0.920319 0.929709 0.939082 0.948436 0.95777 0.967082 0.976371 0.985635 0.994873 1.00408 1.01327 1.02242 1.03154 1.04064 1.04969 1.05872 1.06771 1.07666 1.08558 1.09446 1.1033 1.1121 1.12086 1.12957 1.13825 1.14688 1.15547 1.16401 1.17251 1.18096 1.18936 1.19771 1.20602 1.21427 1.22247 1.23063 1.23873 1.24678 1.25478 1.26272 1.27061 1.27844 1.28622 1.29395 1.30162 1.30923 1.31679 1.32429 1.33173 1.33912 1.34645 1.35373 1.36094 1.36811 1.37521 1.38227 1.38926 1.39621 1.4031 1.40994 1.41673 1.42347 1.43015 1.43679 1.44338 1.44993 1.45642 1.46287 1.46926 1.47561 1.48189 1.48811 1.49426 
0.675416 0.684556 0.693709 0.702879 0.71207 0.721286 0.730528 0.739796 0.749092 0.758413 0.767759 0.777127 0.786515 0.795921 0.805343 0.814777 0.824221 0.833672 0.843128 0.852586 0.862044 0.8715 0.880952 0.890397 0.899833 0.909259 0.918673 0.928074 0.937458 0.946825 0.956174 0.965503 0.97481 0.984094 0.993353 1.00259 1.01179 1.02097 1.03012 1.03924 1.04833 1.05739 1.06641 1.0754 1.08435 1.09326 1.10214 1.11098 1.11978 1.12853 1.13725 1.14592 1.15455 1.16314 1.17168 1.18018 1.18863 1.19703 1.20538 1.21369 1.22195 1.23015 1.23831 1.24641 1.25446 1.26246 1.2704 1.27829 1.28613 1.29391 1.30164 1.30931 1.31693 1.32449 1.33199 1.33944 1.34683 1.35417 1.36145 1.36867 1.37583 1.38294 1.39 1.397 1.40394 1.41083 1.41767 1.42446 1.43119 1.43787 1.4445 1.45108 1.45761 1.46408 1.47051 1.47687 1.48318 1.48943 1.49561 1.50172 
0.682815 0.692002 0.7012 0.710412 0.719641 0.72889 0.738161 0.747454 0.756769 0.766106 0.775465 0.784842 0.794237 0.803647 0.813071 0.822505 0.831948 0.841397 0.85085 0.860304 0.869758 0.87921 0.888656 0.898096 0.907528 0.916949 0.926358 0.935752 0.945132 0.954494 0.963838 0.973162 0.982464 0.991744 1.001 1.01023 1.01943 1.02861 1.03776 1.04687 1.05596 1.06501 1.07403 1.08301 1.09196 1.10088 1.10975 1.11859 1.12738 1.13614 1.14486 1.15353 1.16216 1.17075 1.17929 1.18778 1.19623 1.20463 1.21299 1.22129 1.22955 1.23776 1.24591 1.25402 1.26207 1.27007 1.27802 1.28591 1.29375 1.30153 1.30926 1.31694 1.32456 1.33212 1.33963 1.34708 1.35447 1.36181 1.36909 1.37631 1.38348 1.39059 1.39765 1.40465 1.41159 1.41848 1.42532 1.4321 1.43883 1.4455 1.45212 1.45869 1.4652 1.47165 1.47805 1.48439 1.49067 1.49689 1.50303 1.50911 
0.690142 0.699371 0.708609 0.717858 0.727122 0.736402 0.745699 0.755016 0.764351 0.773704 0.783075 0.792463 0.801865 0.811281 0.820708 0.830144 0.839587 0.849036 0.858487 0.867939 0.87739 0.886838 0.896281 0.905717 0.915144 0.92456 0.933964 0.943355 0.95273 0.962088 0.971427 0.980747 0.990045 0.999321 1.00857 1.0178 1.027 1.03617 1.04532 1.05443 1.06351 1.07256 1.08158 1.09056 1.09951 1.10842 1.11729 1.12613 1.13492 1.14368 1.15239 1.16106 1.16969 1.17828 1.18682 1.19531 1.20376 1.21217 1.22052 1.22883 1.23709 1.24529 1.25345 1.26155 1.26961 1.27761 1.28556 1.29345 1.30129 1.30908 1.31681 1.32449 1.33211 1.33968 1.34718 1.35464 1.36203 1.36937 1.37665 1.38388 1.39105 1.39816 1.40522 1.41222 1.41916 1.42605 1.43288 1.43966 1.44638 1.45304 1.45965 1.4662 1.4727 1.47914 1.48551 1.49183 1.49808 1.50427 1.51038 1.51642 
0.697397 0.706664 0.715937 0.725221 0.734515 0.743824 0.753147 0.762485 0.771839 0.781209 0.790593 0.799992 0.809403 0.818824 0.828256 0.837695 0.84714 0.856588 0.866039 0.87549 0.884939 0.894384 0.903824 0.913257 0.92268 0.932093 0.941494 0.95088 0.960251 0.969605 0.978941 0.988257 0.997552 1.00682 1.01607 1.0253 1.03449 1.04366 1.0528 1.06191 1.07099 1.08004 1.08905 1.09803 1.10698 1.11589 1.12476 1.13359 1.14239 1.15114 1.15986 1.16853 1.17716 1.18574 1.19428 1.20278 1.21123 1.21963 1.22798 1.23629 1.24455 1.25276 1.26091 1.26902 1.27707 1.28508 1.29303 1.30092 1.30877 1.31655 1.32429 1.33197 1.33959 1.34716 1.35467 1.36212 1.36952 1.37686 1.38414 1.39137 1.39854 1.40565 1.41271 1.4197 1.42665 1.43353 1.44036 1.44713 1.45384 1.4605 1.46709 1.47363 1.48011 1.48653 1.49289 1.49918 1.50541 1.51157 1.51766 1.52367 
0.704581 0.713881 0.723187 0.732501 0.741824 0.751159 0.760505 0.769865 0.779237 0.788623 0.798021 0.80743 0.816849 0.826278 0.835715 0.845158 0.854605 0.864055 0.873506 0.882957 0.892405 0.901848 0.911286 0.920716 0.930137 0.939547 0.948944 0.958328 0.967695 0.977046 0.986379 0.995691 1.00498 1.01425 1.0235 1.03272 1.04191 1.05108 1.06022 1.06932 1.0784 1.08745 1.09646 1.10544 1.11438 1.12329 1.13216 1.14099 1.14978 1.15853 1.16725 1.17592 1.18455 1.19313 1.20167 1.21017 1.21861 1.22702 1.23537 1.24368 1.25194 1.26015 1.2683 1.27641 1.28447 1.29247 1.30042 1.30832 1.31616 1.32395 1.33169 1.33937 1.34699 1.35456 1.36207 1.36953 1.37692 1.38427 1.39155 1.39878 1.40595 1.41306 1.42011 1.42711 1.43405 1.44093 1.44775 1.45451 1.46122 1.46787 1.47445 1.48098 1.48744 1.49385 1.50019 1.50646 1.51266 1.5188 1.52486 1.53085 
0.711694 0.721024 0.730359 0.739701 0.74905 0.758409 0.767777 0.777157 0.786547 0.795947 0.805358 0.814779 0.824207 0.833644 0.843086 0.852534 0.861984 0.871436 0.880889 0.890339 0.899787 0.90923 0.918666 0.928095 0.937513 0.946921 0.956316 0.965697 0.975062 0.98441 0.993739 1.00305 1.01234 1.0216 1.03085 1.04006 1.04925 1.05842 1.06755 1.07666 1.08573 1.09478 1.10379 1.11276 1.12171 1.13061 1.13948 1.14831 1.1571 1.16585 1.17457 1.18324 1.19186 1.20045 1.20899 1.21748 1.22593 1.23433 1.24269 1.251 1.25925 1.26746 1.27562 1.28373 1.29179 1.29979 1.30774 1.31564 1.32349 1.33128 1.33901 1.34669 1.35432 1.36189 1.3694 1.37685 1.38425 1.3916 1.39888 1.40611 1.41327 1.42038 1.42744 1.43443 1.44137 1.44824 1.45506 1.46182 1.46851 1.47515 1.48173 1.48824 1.49469 1.50108 1.5074 1.51365 1.51984 1.52595 1.53199 1.53795 
0.718735 0.728092 0.737454 0.74682 0.756194 0.765575 0.774964 0.784362 0.793769 0.803184 0.812608 0.822039 0.831478 0.840922 0.85037 0.859823 0.869277 0.878732 0.888186 0.897638 0.907086 0.916529 0.925965 0.935392 0.944809 0.954215 0.963608 0.972986 0.982349 0.991695 1.00102 1.01033 1.01961 1.02888 1.03812 1.04733 1.05652 1.06568 1.07482 1.08392 1.09299 1.10204 1.11104 1.12002 1.12896 1.13786 1.14673 1.15556 1.16435 1.1731 1.18181 1.19048 1.19911 1.20769 1.21623 1.22472 1.23317 1.24158 1.24993 1.25824 1.2665 1.27471 1.28286 1.29097 1.29903 1.30703 1.31499 1.32289 1.33073 1.33852 1.34626 1.35394 1.36157 1.36914 1.37665 1.38411 1.3915 1.39885 1.40613 1.41335 1.42052 1.42763 1.43468 1.44167 1.4486 1.45547 1.46228 1.46903 1.47572 1.48235 1.48892 1.49542 1.50186 1.50823 1.51453 1.52077 1.52694 1.53303 1.53905 1.54499 
0.725703 0.735086 0.744471 0.753861 0.763257 0.772658 0.782067 0.791482 0.800905 0.810334 0.819771 0.829213 0.838661 0.848113 0.857568 0.867026 0.876484 0.885943 0.895399 0.904853 0.914302 0.923745 0.933181 0.942607 0.952024 0.961428 0.97082 0.980197 0.989557 0.998901 1.00823 1.01753 1.02682 1.03608 1.04531 1.05453 1.06371 1.07287 1.082 1.09111 1.10018 1.10922 1.11822 1.1272 1.13614 1.14504 1.1539 1.16273 1.17152 1.18027 1.18898 1.19765 1.20628 1.21486 1.2234 1.23189 1.24034 1.24874 1.2571 1.2654 1.27366 1.28187 1.29003 1.29814 1.3062 1.3142 1.32216 1.33006 1.3379 1.34569 1.35343 1.36111 1.36874 1.37631 1.38382 1.39128 1.39868 1.40602 1.4133 1.42052 1.42769 1.43479 1.44184 1.44883 1.45576 1.46262 1.46943 1.47617 1.48285 1.48947 1.49603 1.50252 1.50894 1.5153 1.52159 1.52781 1.53396 1.54003 1.54603 1.55195 
0.7326 0.742004 0.751412 0.760823 0.770239 0.77966 0.789086 0.798518 0.807956 0.817399 0.826847 0.8363 0.845757 0.855217 0.86468 0.874143 0.883606 0.893068 0.902528 0.911984 0.921434 0.930878 0.940314 0.949741 0.959157 0.96856 0.977951 0.987326 0.996686 1.00603 1.01535 1.02465 1.03394 1.0432 1.05243 1.06164 1.07083 1.07999 1.08912 1.09822 1.10729 1.11632 1.12533 1.1343 1.14324 1.15214 1.161 1.16983 1.17862 1.18737 1.19608 1.20474 1.21337 1.22195 1.23049 1.23898 1.24743 1.25583 1.26419 1.2725 1.28075 1.28896 1.29712 1.30523 1.31329 1.3213 1.32925 1.33715 1.345 1.35279 1.36052 1.36821 1.37583 1.3834 1.39091 1.39837 1.40577 1.41311 1.42039 1.42761 1.43477 1.44188 1.44892 1.45591 1.46283 1.46969 1.47649 1.48322 1.4899 1.49651 1.50305 1.50953 1.51594 1.52229 1.52856 1.53477 1.5409 1.54696 1.55294 1.55884 
0.739423 0.748849 0.758276 0.767707 0.777142 0.786581 0.796024 0.805471 0.814923 0.824379 0.833839 0.843302 0.852769 0.862237 0.871706 0.881175 0.890643 0.900109 0.909572 0.91903 0.928483 0.937928 0.947365 0.956792 0.966208 0.975611 0.985001 0.994376 1.00373 1.01308 1.0224 1.0317 1.04098 1.05024 1.05947 1.06868 1.07786 1.08702 1.09615 1.10525 1.11432 1.12335 1.13236 1.14133 1.15026 1.15916 1.16803 1.17685 1.18564 1.19439 1.2031 1.21176 1.22039 1.22897 1.23751 1.246 1.25445 1.26285 1.2712 1.27951 1.28777 1.29598 1.30414 1.31225 1.32031 1.32831 1.33626 1.34416 1.35201 1.3598 1.36754 1.37522 1.38285 1.39042 1.39793 1.40538 1.41278 1.42012 1.4274 1.43462 1.44178 1.44888 1.45592 1.4629 1.46982 1.47667 1.48347 1.4902 1.49686 1.50346 1.51 1.51647 1.52287 1.5292 1.53546 1.54165 1.54777 1.55381 1.55978 1.56566 
0.746173 0.755618 0.765064 0.774513 0.783965 0.79342 0.802879 0.812341 0.821806 0.831275 0.840746 0.850219 0.859695 0.869171 0.878647 0.888122 0.897595 0.907066 0.916532 0.925993 0.935448 0.944894 0.954332 0.96376 0.973177 0.98258 0.99197 1.00134 1.0107 1.02004 1.02936 1.03866 1.04794 1.0572 1.06643 1.07564 1.08482 1.09398 1.1031 1.1122 1.12127 1.1303 1.13931 1.14827 1.15721 1.16611 1.17497 1.1838 1.19258 1.20133 1.21004 1.2187 1.22733 1.23591 1.24445 1.25294 1.26139 1.26979 1.27814 1.28645 1.29471 1.30292 1.31108 1.31919 1.32724 1.33525 1.3432 1.3511 1.35895 1.36674 1.37448 1.38216 1.38978 1.39735 1.40486 1.41232 1.41971 1.42705 1.43433 1.44154 1.4487 1.4558 1.46284 1.46981 1.47673 1.48358 1.49036 1.49709 1.50374 1.51034 1.51686 1.52332 1.52971 1.53603 1.54228 1.54846 1.55456 1.56059 1.56654 1.57241 
0.75285 0.762312 0.771775 0.781241 0.790709 0.80018 0.809653 0.819128 0.828607 0.838087 0.847569 0.857052 0.866536 0.87602 0.885503 0.894984 0.904462 0.913937 0.923407 0.932871 0.942329 0.951778 0.961217 0.970646 0.980063 0.989467 0.998857 1.00823 1.01759 1.02693 1.03625 1.04555 1.05483 1.06408 1.07331 1.08252 1.0917 1.10085 1.10998 1.11908 1.12814 1.13718 1.14618 1.15515 1.16408 1.17298 1.18184 1.19066 1.19945 1.20819 1.2169 1.22557 1.23419 1.24277 1.25131 1.2598 1.26825 1.27665 1.285 1.29331 1.30157 1.30978 1.31794 1.32604 1.3341 1.34211 1.35006 1.35796 1.36581 1.3736 1.38133 1.38901 1.39664 1.40421 1.41172 1.41917 1.42656 1.4339 1.44117 1.44839 1.45555 1.46264 1.46967 1.47664 1.48355 1.4904 1.49718 1.50389 1.51054 1.51713 1.52364 1.53009 1.53647 1.54278 1.54902 1.55518 1.56127 1.56729 1.57322 1.57908 
0.759452 0.76893 0.778409 0.787891 0.797374 0.806859 0.816345 0.825834 0.835324 0.844815 0.854308 0.8638 0.873293 0.882784 0.892274 0.901761 0.911245 0.920724 0.930198 0.939666 0.949126 0.958577 0.968018 0.977448 0.986866 0.996271 1.00566 1.01504 1.02439 1.03373 1.04305 1.05235 1.06163 1.07088 1.08011 1.08932 1.0985 1.10765 1.11678 1.12587 1.13494 1.14397 1.15297 1.16194 1.17087 1.17977 1.18863 1.19745 1.20624 1.21498 1.22369 1.23235 1.24097 1.24955 1.25809 1.26658 1.27503 1.28343 1.29178 1.30009 1.30835 1.31656 1.32472 1.33282 1.34088 1.34889 1.35684 1.36474 1.37258 1.38037 1.38811 1.39579 1.40341 1.41098 1.41849 1.42594 1.43333 1.44067 1.44794 1.45515 1.46231 1.4694 1.47643 1.48339 1.4903 1.49713 1.50391 1.51062 1.51726 1.52384 1.53035 1.53679 1.54316 1.54945 1.55568 1.56183 1.56791 1.57391 1.57984 1.58568 
0.765979 0.775472 0.784966 0.794462 0.803959 0.813457 0.822957 0.832458 0.841959 0.851461 0.860963 0.870465 0.879965 0.889464 0.898961 0.908454 0.917943 0.927427 0.936905 0.946376 0.955839 0.965292 0.974736 0.984167 0.993587 1.00299 1.01238 1.02176 1.03111 1.04045 1.04977 1.05907 1.06835 1.0776 1.08683 1.09604 1.10522 1.11437 1.12349 1.13259 1.14165 1.15068 1.15968 1.16865 1.17758 1.18648 1.19534 1.20416 1.21294 1.22169 1.23039 1.23906 1.24768 1.25626 1.2648 1.27329 1.28173 1.29013 1.29849 1.30679 1.31505 1.32326 1.33142 1.33953 1.34758 1.35559 1.36354 1.37144 1.37928 1.38707 1.39481 1.40249 1.41011 1.41767 1.42518 1.43263 1.44002 1.44735 1.45462 1.46183 1.46898 1.47607 1.4831 1.49006 1.49696 1.50379 1.51056 1.51726 1.5239 1.53047 1.53697 1.5434 1.54976 1.55605 1.56226 1.5684 1.57447 1.58046 1.58637 1.59221 
0.772431 0.781938 0.791446 0.800955 0.810465 0.819976 0.829487 0.838999 0.848512 0.858024 0.867535 0.877045 0.886554 0.89606 0.905563 0.915062 0.924557 0.934045 0.943527 0.953002 0.962468 0.971924 0.981369 0.990803 1.00022 1.00963 1.01902 1.0284 1.03775 1.04709 1.05641 1.06571 1.07499 1.08424 1.09347 1.10268 1.11186 1.12101 1.13013 1.13922 1.14829 1.15732 1.16632 1.17528 1.18421 1.19311 1.20197 1.21079 1.21957 1.22832 1.23702 1.24568 1.25431 1.26288 1.27142 1.27991 1.28836 1.29676 1.30511 1.31342 1.32167 1.32988 1.33804 1.34615 1.3542 1.36221 1.37016 1.37806 1.3859 1.39369 1.40142 1.4091 1.41672 1.42429 1.43179 1.43924 1.44663 1.45396 1.46123 1.46843 1.47558 1.48266 1.48969 1.49664 1.50354 1.51037 1.51713 1.52383 1.53045 1.53702 1.54351 1.54993 1.55628 1.56256 1.56877 1.5749 1.58095 1.58693 1.59283 1.59866 
0.778808 0.788327 0.797848 0.807369 0.816891 0.826414 0.835937 0.845459 0.854982 0.864503 0.874024 0.883542 0.893058 0.902572 0.912081 0.921586 0.931085 0.940579 0.950065 0.959543 0.969012 0.978471 0.987919 0.997354 1.00678 1.01618 1.02558 1.03495 1.04431 1.05365 1.06297 1.07227 1.08155 1.0908 1.10003 1.10923 1.11841 1.12756 1.13668 1.14578 1.15484 1.16387 1.17287 1.18183 1.19076 1.19966 1.20852 1.21734 1.22612 1.23486 1.24357 1.25223 1.26085 1.26943 1.27796 1.28646 1.2949 1.3033 1.31165 1.31996 1.32821 1.33642 1.34458 1.35269 1.36074 1.36875 1.3767 1.38459 1.39244 1.40022 1.40796 1.41563 1.42325 1.43082 1.43832 1.44577 1.45315 1.46048 1.46775 1.47495 1.48209 1.48918 1.49619 1.50315 1.51003 1.51686 1.52362 1.53031 1.53693 1.54348 1.54997 1.55638 1.56272 1.56899 1.57519 1.58131 1.58736 1.59333 1.59922 1.60503 
0.785108 0.794639 0.804172 0.813705 0.823238 0.832772 0.842305 0.851838 0.861369 0.8709 0.880429 0.889955 0.899479 0.908999 0.918514 0.928025 0.93753 0.947028 0.956518 0.966 0.975472 0.984933 0.994384 1.00382 1.01325 1.02265 1.03205 1.04143 1.05078 1.06012 1.06944 1.07874 1.08802 1.09727 1.1065 1.11571 1.12488 1.13403 1.14316 1.15225 1.16131 1.17034 1.17934 1.1883 1.19723 1.20613 1.21498 1.2238 1.23259 1.24133 1.25003 1.2587 1.26732 1.27589 1.28443 1.29292 1.30136 1.30976 1.31811 1.32642 1.33467 1.34288 1.35104 1.35914 1.3672 1.3752 1.38315 1.39105 1.39889 1.40668 1.41441 1.42209 1.4297 1.43727 1.44477 1.45221 1.4596 1.46692 1.47418 1.48139 1.48853 1.4956 1.50262 1.50957 1.51645 1.52327 1.53002 1.5367 1.54332 1.54987 1.55635 1.56275 1.56909 1.57535 1.58154 1.58765 1.59369 1.59964 1.60553 1.61133 
0.791331 0.800874 0.810417 0.819961 0.829505 0.839049 0.848592 0.858134 0.867675 0.877214 0.886751 0.896285 0.905815 0.915342 0.924863 0.93438 0.943889 0.953392 0.962886 0.972371 0.981847 0.991311 1.00076 1.0102 1.01963 1.02904 1.03844 1.04781 1.05717 1.06651 1.07583 1.08513 1.09441 1.10366 1.11289 1.1221 1.13127 1.14042 1.14955 1.15864 1.1677 1.17673 1.18573 1.19469 1.20362 1.21251 1.22137 1.23019 1.23897 1.24771 1.25642 1.26508 1.2737 1.28228 1.29081 1.2993 1.30774 1.31614 1.32449 1.3328 1.34105 1.34926 1.35742 1.36552 1.37358 1.38158 1.38953 1.39742 1.40526 1.41305 1.42078 1.42845 1.43607 1.44363 1.45113 1.45857 1.46596 1.47328 1.48054 1.48774 1.49487 1.50195 1.50896 1.5159 1.52278 1.52959 1.53634 1.54302 1.54963 1.55617 1.56264 1.56904 1.57537 1.58162 1.5878 1.59391 1.59993 1.60588 1.61176 1.61755 
0.797476 0.80703 0.816584 0.826137 0.835691 0.845245 0.854797 0.864348 0.873897 0.883445 0.892989 0.90253 0.912068 0.9216 0.931128 0.940649 0.950164 0.959671 0.969169 0.978658 0.988137 0.997604 1.00706 1.0165 1.02593 1.03534 1.04474 1.05412 1.06348 1.07282 1.08214 1.09144 1.10072 1.10997 1.1192 1.1284 1.13758 1.14673 1.15585 1.16494 1.174 1.18303 1.19203 1.20099 1.20992 1.21882 1.22767 1.23649 1.24527 1.25402 1.26272 1.27138 1.28 1.28858 1.29711 1.3056 1.31404 1.32244 1.33079 1.33909 1.34735 1.35555 1.36371 1.37182 1.37987 1.38787 1.39582 1.40371 1.41155 1.41934 1.42707 1.43474 1.44236 1.44991 1.45741 1.46485 1.47223 1.47955 1.48681 1.49401 1.50114 1.50821 1.51521 1.52216 1.52903 1.53584 1.54258 1.54925 1.55586 1.56239 1.56886 1.57525 1.58157 1.58782 1.59399 1.60008 1.6061 1.61205 1.61791 1.62369 
0.803544 0.813107 0.822671 0.832234 0.841797 0.851359 0.86092 0.87048 0.880037 0.889592 0.899144 0.908692 0.918236 0.927774 0.937308 0.946834 0.956353 0.965865 0.975367 0.98486 0.994342 1.00381 1.01327 1.02271 1.03214 1.04156 1.05096 1.06034 1.0697 1.07904 1.08836 1.09766 1.10694 1.11619 1.12542 1.13463 1.14381 1.15295 1.16208 1.17117 1.18023 1.18926 1.19825 1.20722 1.21614 1.22504 1.23389 1.24271 1.25149 1.26024 1.26894 1.2776 1.28622 1.29479 1.30333 1.31181 1.32026 1.32866 1.33701 1.34531 1.35356 1.36177 1.36992 1.37803 1.38608 1.39408 1.40203 1.40992 1.41776 1.42554 1.43327 1.44094 1.44856 1.45611 1.46361 1.47105 1.47843 1.48574 1.493 1.50019 1.50732 1.51439 1.52139 1.52833 1.5352 1.542 1.54874 1.55541 1.562 1.56853 1.57499 1.58138 1.58769 1.59393 1.60009 1.60618 1.61219 1.61813 1.62398 1.62976 
0.809534 0.819106 0.828678 0.83825 0.847822 0.857392 0.866962 0.876529 0.886094 0.895656 0.905215 0.91477 0.924319 0.933864 0.943402 0.952934 0.962458 0.971973 0.981479 0.990976 1.00046 1.00993 1.01939 1.02884 1.03827 1.04769 1.05709 1.06647 1.07583 1.08518 1.0945 1.1038 1.11308 1.12233 1.13156 1.14077 1.14994 1.15909 1.16821 1.17731 1.18637 1.19539 1.20439 1.21335 1.22228 1.23117 1.24003 1.24885 1.25763 1.26637 1.27507 1.28373 1.29235 1.30093 1.30946 1.31795 1.32639 1.33479 1.34314 1.35144 1.35969 1.3679 1.37605 1.38415 1.39221 1.40021 1.40815 1.41605 1.42388 1.43167 1.43939 1.44706 1.45467 1.46223 1.46972 1.47716 1.48454 1.49185 1.4991 1.50629 1.51342 1.52048 1.52748 1.53441 1.54128 1.54808 1.55481 1.56147 1.56807 1.57459 1.58104 1.58742 1.59373 1.59996 1.60612 1.6122 1.6182 1.62413 1.62998 1.63575 
0.815444 0.825024 0.834605 0.844186 0.853765 0.863344 0.872921 0.882496 0.892068 0.901637 0.911202 0.920763 0.930318 0.939868 0.949412 0.958948 0.968477 0.977996 0.987506 0.997006 1.00649 1.01597 1.02543 1.03488 1.04432 1.05373 1.06314 1.07252 1.08188 1.09123 1.10055 1.10985 1.11913 1.12839 1.13762 1.14682 1.156 1.16515 1.17427 1.18336 1.19242 1.20145 1.21044 1.21941 1.22833 1.23723 1.24608 1.2549 1.26368 1.27242 1.28112 1.28978 1.2984 1.30698 1.31551 1.324 1.33244 1.34083 1.34918 1.35749 1.36574 1.37394 1.3821 1.3902 1.39825 1.40625 1.41419 1.42208 1.42992 1.4377 1.44543 1.4531 1.46071 1.46826 1.47575 1.48319 1.49056 1.49787 1.50512 1.51231 1.51943 1.52649 1.53349 1.54042 1.54728 1.55407 1.5608 1.56746 1.57405 1.58056 1.58701 1.59338 1.59968 1.60591 1.61206 1.61814 1.62413 1.63005 1.63589 1.64166 