# vtk DataFile Version 3.0
cell
ASCII
DATASET STRUCTURED_POINTS
DIMENSIONS 100 100 1
ORIGIN 0 0 0
SPACING 0.010000 0.010000 1
POINT_DATA 10000
SCALARS sample_scalars double
LOOKUP_TABLE default
0.557631 0.563908 0.57209 0.581036 0.590334 0.599816 0.609402 0.619051 0.628739 0.638452 0.64818 0.657916 0.667655 0.677393 0.687128 0.696856 0.706576 0.716286 0.725984 0.735668 0.745337 0.75499 0.764625 0.774242 0.783839 0.793415 0.802969 0.812499 0.822006 0.831487 0.840942 0.85037 0.859769 0.86914 0.87848 0.887789 0.897067 0.906311 0.915521 0.924697 0.933837 0.94294 0.952006 0.961033 0.970021 0.978969 0.987876 0.99674 1.00556 1.01434 1.02307 1.03176 1.0404 1.049 1.05755 1.06604 1.07449 1.08289 1.09124 1.09953 1.10777 1.11596 1.12409 1.13217 1.14019 1.14816 1.15607 1.16391 1.17171 1.17944 1.18711 1.19471 1.20226 1.20975 1.21717 1.22452 1.23182 1.23904 1.24621 1.2533 1.26033 1.26729 1.27419 1.28101 1.28777 1.29447 1.30109 1.30765 1.31414 1.32057 1.32693 1.33324 1.33949 1.3457 1.35189 1.35807 1.36432 1.37076 1.3777 1.38598 
0.5694 0.575651 0.583256 0.59166 0.600531 0.609682 0.619008 0.628448 0.637965 0.647533 0.657138 0.666766 0.67641 0.686064 0.695722 0.705381 0.715037 0.724688 0.734331 0.743965 0.753587 0.763195 0.772789 0.782366 0.791926 0.801467 0.810988 0.820487 0.829964 0.839417 0.848845 0.858248 0.867624 0.876972 0.886292 0.895581 0.90484 0.914068 0.923262 0.932423 0.94155 0.950641 0.959695 0.968713 0.977692 0.986632 0.995532 1.00439 1.01321 1.02198 1.03072 1.0394 1.04805 1.05664 1.06519 1.07369 1.08215 1.09055 1.0989 1.10721 1.11546 1.12366 1.1318 1.13989 1.14793 1.15591 1.16383 1.1717 1.17951 1.18726 1.19495 1.20259 1.21016 1.21767 1.22512 1.2325 1.23983 1.24709 1.25428 1.26142 1.26849 1.27549 1.28243 1.28931 1.29612 1.30287 1.30956 1.31618 1.32275 1.32927 1.33573 1.34215 1.34854 1.35491 1.3613 1.36774 1.37432 1.38117 1.38855 1.39686 
0.579208 0.585986 0.593565 0.601761 0.610389 0.619313 0.62844 0.637708 0.647076 0.656516 0.666007 0.675535 0.68509 0.694663 0.704248 0.71384 0.723434 0.733028 0.742618 0.752202 0.761777 0.771342 0.780894 0.790433 0.799956 0.809462 0.81895 0.828418 0.837866 0.847291 0.856693 0.866071 0.875423 0.88475 0.894048 0.903318 0.912559 0.921769 0.930948 0.940095 0.949208 0.958286 0.96733 0.976338 0.985308 0.994241 1.00313 1.01199 1.0208 1.02957 1.0383 1.04699 1.05563 1.06423 1.07278 1.08129 1.08975 1.09816 1.10652 1.11483 1.12309 1.1313 1.13945 1.14756 1.15561 1.1636 1.17155 1.17943 1.18726 1.19503 1.20274 1.2104 1.218 1.22553 1.23301 1.24043 1.24778 1.25507 1.26231 1.26948 1.27659 1.28363 1.29062 1.29754 1.3044 1.31121 1.31796 1.32465 1.33129 1.33789 1.34444 1.35096 1.35747 1.36398 1.37052 1.37714 1.38391 1.39093 1.39833 1.40625 
0.588194 0.595463 0.6032 0.61137 0.619891 0.62868 0.637669 0.646806 0.656053 0.665383 0.674775 0.684213 0.693686 0.703184 0.7127 0.722228 0.731763 0.741302 0.75084 0.760376 0.769905 0.779428 0.78894 0.79844 0.807927 0.817399 0.826854 0.836292 0.84571 0.855108 0.864484 0.873837 0.883167 0.892471 0.901749 0.911 0.920222 0.929416 0.938579 0.947711 0.956811 0.965877 0.97491 0.983908 0.992869 1.00179 1.01068 1.01953 1.02834 1.03711 1.04584 1.05452 1.06317 1.07176 1.08032 1.08883 1.09729 1.10571 1.11407 1.12239 1.13066 1.13888 1.14705 1.15517 1.16323 1.17125 1.1792 1.18711 1.19495 1.20275 1.21048 1.21816 1.22578 1.23334 1.24085 1.24829 1.25568 1.263 1.27027 1.27748 1.28462 1.29171 1.29874 1.30571 1.31262 1.31948 1.32628 1.33304 1.33975 1.34642 1.35305 1.35966 1.36627 1.37288 1.37953 1.38626 1.39312 1.40016 1.40745 1.41501 
0.596767 0.604414 0.612343 0.620571 0.629066 0.637787 0.646688 0.655731 0.664885 0.674125 0.683432 0.692791 0.70219 0.71162 0.721071 0.73054 0.740019 0.749505 0.758994 0.768483 0.777969 0.78745 0.796923 0.806386 0.815837 0.825276 0.834699 0.844107 0.853497 0.862867 0.872218 0.881547 0.890853 0.900135 0.909393 0.918625 0.927829 0.937006 0.946154 0.955271 0.964358 0.973413 0.982434 0.991422 1.00038 1.00929 1.01817 1.02702 1.03582 1.04459 1.05331 1.062 1.07064 1.07924 1.0878 1.09631 1.10478 1.1132 1.12158 1.12991 1.13818 1.14641 1.15459 1.16272 1.1708 1.17883 1.1868 1.19472 1.20259 1.2104 1.21816 1.22586 1.2335 1.24109 1.24862 1.2561 1.26351 1.27087 1.27817 1.28541 1.2926 1.29972 1.30679 1.31381 1.32077 1.32768 1.33453 1.34135 1.34812 1.35485 1.36155 1.36824 1.37492 1.38161 1.38834 1.39512 1.402 1.40901 1.41616 1.42344 
0.605096 0.613024 0.62113 0.629442 0.637957 0.646652 0.655503 0.664482 0.673567 0.682736 0.691973 0.701264 0.710598 0.719966 0.729359 0.738772 0.748199 0.757636 0.767078 0.776522 0.785966 0.795407 0.804842 0.814269 0.823686 0.833092 0.842484 0.851862 0.861224 0.870568 0.879893 0.889198 0.898481 0.907743 0.91698 0.926193 0.93538 0.94454 0.953672 0.962776 0.971849 0.980892 0.989903 0.998882 1.00783 1.01674 1.02561 1.03445 1.04325 1.05201 1.06074 1.06942 1.07807 1.08667 1.09523 1.10374 1.11222 1.12064 1.12903 1.13736 1.14565 1.15389 1.16208 1.17022 1.17832 1.18636 1.19435 1.20229 1.21017 1.218 1.22578 1.2335 1.24117 1.24878 1.25634 1.26384 1.27129 1.27868 1.28601 1.29328 1.3005 1.30767 1.31478 1.32184 1.32884 1.33579 1.3427 1.34957 1.35639 1.36318 1.36994 1.37669 1.38343 1.39017 1.39694 1.40375 1.41062 1.41757 1.42459 1.43167 
0.613258 0.621395 0.629651 0.638052 0.646604 0.655301 0.664127 0.673066 0.6821 0.691214 0.700394 0.709628 0.718906 0.728219 0.73756 0.746922 0.7563 0.765691 0.775089 0.784491 0.793895 0.803297 0.812695 0.822087 0.831471 0.840845 0.850207 0.859556 0.86889 0.878208 0.887509 0.89679 0.906051 0.915292 0.924509 0.933704 0.942873 0.952017 0.961134 0.970224 0.979285 0.988316 0.997316 1.00628 1.01522 1.02412 1.03299 1.04183 1.05062 1.05938 1.06811 1.07679 1.08543 1.09404 1.1026 1.11112 1.11959 1.12803 1.13642 1.14476 1.15306 1.16131 1.16951 1.17767 1.18577 1.19383 1.20183 1.20979 1.21769 1.22554 1.23334 1.24109 1.24878 1.25642 1.264 1.27153 1.279 1.28642 1.29378 1.30109 1.30835 1.31555 1.32269 1.32979 1.33684 1.34383 1.35079 1.3577 1.36457 1.37141 1.37822 1.38501 1.39179 1.39858 1.40537 1.41219 1.41904 1.42592 1.43284 1.43976 
0.621292 0.629588 0.637966 0.646449 0.655047 0.663758 0.672576 0.681491 0.69049 0.699562 0.708697 0.717883 0.727112 0.736377 0.745671 0.754987 0.764321 0.773668 0.783025 0.792387 0.801752 0.811118 0.820481 0.829839 0.839191 0.848534 0.857867 0.867188 0.876496 0.885788 0.895064 0.904323 0.913563 0.922782 0.93198 0.941156 0.950309 0.959437 0.968539 0.977615 0.986663 0.995682 1.00467 1.01363 1.02256 1.03146 1.04032 1.04915 1.05794 1.0667 1.07542 1.0841 1.09274 1.10135 1.10991 1.11844 1.12692 1.13536 1.14375 1.1521 1.16041 1.16867 1.17689 1.18505 1.19317 1.20124 1.20926 1.21724 1.22516 1.23303 1.24084 1.24861 1.25633 1.26399 1.27159 1.27915 1.28665 1.2941 1.30149 1.30883 1.31612 1.32335 1.33054 1.33767 1.34475 1.35179 1.35879 1.36574 1.37265 1.37953 1.38638 1.39321 1.40003 1.40683 1.41364 1.42045 1.42727 1.4341 1.44093 1.44775 
0.62922 0.637639 0.646116 0.654671 0.663313 0.672045 0.680865 0.689767 0.698742 0.707783 0.716881 0.726028 0.735217 0.744439 0.753691 0.762966 0.772259 0.781566 0.790884 0.800209 0.809539 0.818869 0.828199 0.837525 0.846846 0.856159 0.865464 0.874757 0.884039 0.893307 0.902559 0.911795 0.921014 0.930213 0.939393 0.948551 0.957686 0.966799 0.975886 0.984948 0.993984 1.00299 1.01197 1.02092 1.02984 1.03873 1.04759 1.05641 1.0652 1.07395 1.08267 1.09135 1.1 1.1086 1.11717 1.1257 1.13418 1.14263 1.15103 1.15939 1.16771 1.17598 1.1842 1.19238 1.20051 1.2086 1.21663 1.22462 1.23256 1.24045 1.24829 1.25608 1.26381 1.2715 1.27913 1.28671 1.29423 1.30171 1.30913 1.3165 1.32382 1.33109 1.33831 1.34547 1.35259 1.35967 1.3667 1.37369 1.38064 1.38755 1.39444 1.4013 1.40813 1.41496 1.42177 1.42857 1.43536 1.44215 1.44891 1.45564 
0.637056 0.64557 0.654127 0.662743 0.671427 0.680182 0.689009 0.697905 0.706865 0.715882 0.724952 0.734066 0.743219 0.752406 0.76162 0.770857 0.780113 0.789384 0.798666 0.807956 0.817252 0.826549 0.835847 0.845142 0.854434 0.863719 0.872996 0.882263 0.891519 0.900763 0.909993 0.919207 0.928405 0.937585 0.946745 0.955886 0.965005 0.974102 0.983175 0.992224 1.00125 1.01024 1.01921 1.02816 1.03707 1.04595 1.0548 1.06362 1.0724 1.08115 1.08987 1.09855 1.1072 1.1158 1.12437 1.1329 1.14139 1.14985 1.15825 1.16662 1.17494 1.18322 1.19146 1.19965 1.2078 1.2159 1.22395 1.23195 1.23991 1.24781 1.25567 1.26348 1.27124 1.27894 1.2866 1.2942 1.30176 1.30926 1.31671 1.32411 1.33145 1.33875 1.346 1.3532 1.36035 1.36746 1.37452 1.38155 1.38853 1.39547 1.40238 1.40927 1.41612 1.42296 1.42977 1.43656 1.44333 1.45007 1.45678 1.46344 
0.644806 0.653396 0.662018 0.670685 0.679405 0.688183 0.69702 0.705915 0.714864 0.723864 0.732911 0.741998 0.751121 0.760276 0.769458 0.778662 0.787884 0.797121 0.80637 0.815628 0.824891 0.834158 0.843425 0.852691 0.861954 0.871212 0.880462 0.889705 0.898937 0.908157 0.917364 0.926558 0.935735 0.944896 0.954038 0.963162 0.972265 0.981347 0.990406 0.999442 1.00845 1.01744 1.0264 1.03533 1.04424 1.05311 1.06195 1.07077 1.07955 1.0883 1.09701 1.10569 1.11434 1.12295 1.13152 1.14005 1.14855 1.157 1.16542 1.17379 1.18213 1.19042 1.19866 1.20686 1.21502 1.22313 1.2312 1.23922 1.24719 1.25512 1.26299 1.27082 1.2786 1.28633 1.294 1.30163 1.30921 1.31674 1.32421 1.33164 1.33902 1.34634 1.35362 1.36085 1.36803 1.37517 1.38226 1.38931 1.39632 1.40329 1.41023 1.41713 1.424 1.43084 1.43765 1.44443 1.45118 1.45789 1.46455 1.47116 
0.652478 0.661127 0.669801 0.678511 0.687263 0.696062 0.704909 0.713804 0.722747 0.731734 0.740762 0.749827 0.758925 0.768052 0.777205 0.786379 0.795571 0.804777 0.813995 0.823223 0.832456 0.841693 0.850932 0.86017 0.869406 0.878638 0.887863 0.897081 0.906289 0.915487 0.924673 0.933846 0.943004 0.952146 0.961271 0.970378 0.979465 0.988533 0.997578 1.0066 1.0156 1.02458 1.03353 1.04245 1.05135 1.06021 1.06905 1.07786 1.08664 1.09539 1.1041 1.11278 1.12142 1.13003 1.13861 1.14715 1.15564 1.16411 1.17253 1.18091 1.18925 1.19755 1.20581 1.21402 1.22219 1.23031 1.23839 1.24643 1.25442 1.26236 1.27025 1.2781 1.2859 1.29365 1.30135 1.309 1.3166 1.32415 1.33165 1.3391 1.34651 1.35386 1.36117 1.36842 1.37563 1.3828 1.38992 1.39699 1.40403 1.41102 1.41798 1.42489 1.43177 1.43862 1.44542 1.45219 1.45892 1.46561 1.47224 1.47881 
0.660072 0.668769 0.677486 0.686231 0.69501 0.703827 0.712684 0.721582 0.73052 0.739497 0.74851 0.757556 0.766633 0.775736 0.784862 0.794009 0.803173 0.812352 0.821542 0.830741 0.839946 0.849156 0.858368 0.867579 0.87679 0.885996 0.895197 0.904392 0.913578 0.922754 0.931919 0.941072 0.950211 0.959335 0.968443 0.977534 0.986606 0.995659 1.00469 1.0137 1.02269 1.03166 1.0406 1.04951 1.0584 1.06726 1.07609 1.0849 1.09367 1.10242 1.11113 1.11981 1.12845 1.13706 1.14564 1.15418 1.16268 1.17115 1.17958 1.18797 1.19631 1.20462 1.21289 1.22111 1.2293 1.23743 1.24553 1.25358 1.26158 1.26954 1.27745 1.28532 1.29313 1.3009 1.30862 1.3163 1.32392 1.33149 1.33902 1.3465 1.35393 1.3613 1.36864 1.37592 1.38316 1.39034 1.39749 1.40459 1.41164 1.41866 1.42563 1.43256 1.43945 1.44629 1.4531 1.45986 1.46658 1.47324 1.47985 1.48639 
0.667593 0.676328 0.685079 0.693853 0.702654 0.711487 0.720353 0.729254 0.738189 0.747158 0.756158 0.765188 0.774246 0.783327 0.792431 0.801554 0.810692 0.819845 0.829009 0.838182 0.847361 0.856545 0.865731 0.874918 0.884104 0.893286 0.902465 0.911637 0.920801 0.929957 0.939102 0.948235 0.957356 0.966462 0.975554 0.984629 0.993686 1.00273 1.01174 1.02074 1.02972 1.03868 1.04761 1.05651 1.0654 1.07425 1.08308 1.09188 1.10065 1.10939 1.1181 1.12678 1.13542 1.14404 1.15261 1.16116 1.16967 1.17814 1.18657 1.19497 1.20332 1.21164 1.21992 1.22815 1.23634 1.2445 1.2526 1.26067 1.26869 1.27666 1.28459 1.29247 1.30031 1.3081 1.31584 1.32353 1.33117 1.33877 1.34632 1.35382 1.36127 1.36867 1.37603 1.38334 1.3906 1.39781 1.40498 1.4121 1.41917 1.4262 1.43319 1.44013 1.44702 1.45387 1.46068 1.46744 1.47414 1.48079 1.48737 1.49389 
0.675041 0.683806 0.692585 0.701382 0.710202 0.719048 0.727922 0.736825 0.745758 0.75472 0.76371 0.772726 0.781767 0.790829 0.799912 0.809013 0.818129 0.827258 0.836397 0.845546 0.854701 0.86386 0.873023 0.882186 0.891348 0.900508 0.909664 0.918815 0.927959 0.937094 0.94622 0.955335 0.964438 0.973528 0.982603 0.991663 1.00071 1.00973 1.01874 1.02773 1.03669 1.04564 1.05456 1.06346 1.07233 1.08118 1.09 1.0988 1.10757 1.1163 1.12501 1.13369 1.14234 1.15095 1.15953 1.16808 1.17659 1.18507 1.1935 1.20191 1.21027 1.2186 1.22688 1.23513 1.24333 1.2515 1.25962 1.26769 1.27573 1.28372 1.29166 1.29956 1.30742 1.31522 1.32298 1.3307 1.33836 1.34598 1.35355 1.36107 1.36855 1.37597 1.38335 1.39068 1.39796 1.40519 1.41238 1.41952 1.42661 1.43366 1.44066 1.44761 1.45451 1.46137 1.46817 1.47492 1.48162 1.48825 1.49483 1.50133 
0.682416 0.691206 0.700007 0.708823 0.717658 0.726514 0.735395 0.7443 0.753231 0.762187 0.771168 0.780172 0.789197 0.798243 0.807307 0.816388 0.825483 0.83459 0.843707 0.852833 0.861965 0.871102 0.880242 0.889383 0.898523 0.907662 0.916797 0.925927 0.935051 0.944167 0.953274 0.962372 0.971458 0.980531 0.989591 0.998636 1.00767 1.01668 1.02567 1.03465 1.0436 1.05254 1.06145 1.07034 1.07921 1.08805 1.09687 1.10566 1.11443 1.12316 1.13187 1.14055 1.14919 1.15781 1.16639 1.17494 1.18346 1.19194 1.20038 1.20879 1.21716 1.2255 1.23379 1.24205 1.25026 1.25844 1.26657 1.27466 1.28271 1.29071 1.29867 1.30659 1.31446 1.32229 1.33006 1.3378 1.34548 1.35312 1.36071 1.36825 1.37575 1.38319 1.39059 1.39794 1.40524 1.4125 1.4197 1.42686 1.43397 1.44103 1.44804 1.455 1.46191 1.46877 1.47557 1.48232 1.48901 1.49564 1.5022 1.50869 
0.689721 0.69853 0.707348 0.716179 0.725026 0.733891 0.742776 0.751683 0.760612 0.769563 0.778535 0.787528 0.79654 0.805571 0.814618 0.82368 0.832755 0.841842 0.850939 0.860044 0.869154 0.87827 0.887388 0.896508 0.905628 0.914746 0.923861 0.932972 0.942077 0.951174 0.960264 0.969344 0.978414 0.987472 0.996517 1.00555 1.01456 1.02356 1.03255 1.04151 1.05046 1.05938 1.06829 1.07717 1.08603 1.09487 1.10368 1.11247 1.12123 1.12996 1.13867 1.14734 1.15599 1.16461 1.17319 1.18174 1.19026 1.19875 1.2072 1.21561 1.22399 1.23233 1.24064 1.2489 1.25713 1.26532 1.27346 1.28157 1.28963 1.29765 1.30562 1.31355 1.32144 1.32928 1.33708 1.34483 1.35253 1.36019 1.3678 1.37536 1.38288 1.39034 1.39776 1.40513 1.41245 1.41972 1.42695 1.43412 1.44124 1.44831 1.45534 1.46231 1.46923 1.47609 1.4829 1.48964 1.49633 1.50295 1.50951 1.51599 
0.696954 0.705779 0.71461 0.723453 0.732309 0.741181 0.75007 0.758977 0.767903 0.776849 0.785813 0.794796 0.803796 0.812813 0.821844 0.83089 0.839947 0.849016 0.858093 0.867178 0.876269 0.885364 0.894463 0.903563 0.912663 0.921761 0.930857 0.939949 0.949036 0.958116 0.967189 0.976253 0.985307 0.99435 1.00338 1.0124 1.0214 1.03039 1.03936 1.04831 1.05725 1.06617 1.07506 1.08394 1.09279 1.10163 1.11043 1.11922 1.12797 1.1367 1.14541 1.15408 1.16273 1.17135 1.17993 1.18849 1.19701 1.2055 1.21396 1.22238 1.23077 1.23911 1.24743 1.2557 1.26394 1.27214 1.28029 1.28841 1.29648 1.30452 1.31251 1.32045 1.32836 1.33622 1.34403 1.3518 1.35952 1.36719 1.37482 1.3824 1.38993 1.39742 1.40486 1.41224 1.41958 1.42687 1.43411 1.4413 1.44843 1.45552 1.46255 1.46953 1.47646 1.48333 1.49013 1.49688 1.50357 1.51019 1.51674 1.52321 
0.704117 0.712953 0.721795 0.730647 0.73951 0.748386 0.757277 0.766184 0.775108 0.784048 0.793005 0.801979 0.810968 0.819971 0.828988 0.838018 0.847059 0.85611 0.86517 0.874236 0.883309 0.892385 0.901465 0.910546 0.919627 0.928707 0.937785 0.94686 0.955929 0.964993 0.974049 0.983097 0.992136 1.00116 1.01018 1.01919 1.02818 1.03715 1.04611 1.05506 1.06398 1.07289 1.08178 1.09065 1.0995 1.10832 1.11713 1.12591 1.13466 1.14339 1.15209 1.16077 1.16941 1.17803 1.18662 1.19518 1.2037 1.2122 1.22066 1.22909 1.23748 1.24584 1.25416 1.26244 1.27069 1.27889 1.28706 1.29519 1.30328 1.31132 1.31933 1.32729 1.33521 1.34308 1.35091 1.3587 1.36643 1.37413 1.38177 1.38937 1.39692 1.40442 1.41188 1.41928 1.42664 1.43394 1.44119 1.4484 1.45555 1.46265 1.46969 1.47668 1.48361 1.49048 1.49729 1.50405 1.51073 1.51735 1.52389 1.53036 
0.711208 0.720053 0.728903 0.737761 0.746629 0.755509 0.764401 0.773307 0.782228 0.791163 0.800113 0.809077 0.818056 0.827047 0.836051 0.845067 0.854092 0.863127 0.87217 0.881219 0.890274 0.899333 0.908394 0.917458 0.926521 0.935584 0.944645 0.953702 0.962756 0.971803 0.980844 0.989877 0.998901 1.00792 1.01692 1.02591 1.03489 1.04385 1.0528 1.06174 1.07066 1.07956 1.08844 1.0973 1.10614 1.11496 1.12376 1.13254 1.14129 1.15001 1.15871 1.16739 1.17604 1.18466 1.19325 1.20181 1.21034 1.21883 1.2273 1.23573 1.24413 1.2525 1.26082 1.26912 1.27737 1.28559 1.29377 1.30191 1.31001 1.31807 1.32609 1.33406 1.34199 1.34988 1.35773 1.36553 1.37328 1.38099 1.38865 1.39627 1.40384 1.41135 1.41882 1.42624 1.43362 1.44093 1.4482 1.45542 1.46258 1.46969 1.47674 1.48374 1.49068 1.49756 1.50438 1.51113 1.51782 1.52443 1.53098 1.53745 
0.718228 0.727079 0.735935 0.744798 0.753669 0.762551 0.771443 0.780348 0.789265 0.798195 0.807138 0.816094 0.825062 0.834042 0.843034 0.852035 0.861047 0.870066 0.879093 0.888126 0.897165 0.906207 0.915252 0.924298 0.933345 0.942392 0.951436 0.960478 0.969515 0.978547 0.987573 0.996592 1.0056 1.0146 1.02359 1.03257 1.04154 1.0505 1.05944 1.06836 1.07727 1.08616 1.09504 1.10389 1.11273 1.12154 1.13034 1.13911 1.14786 1.15658 1.16528 1.17395 1.1826 1.19122 1.19981 1.20838 1.21691 1.22541 1.23388 1.24232 1.25073 1.2591 1.26743 1.27573 1.284 1.29223 1.30042 1.30857 1.31668 1.32475 1.33278 1.34077 1.34871 1.35662 1.36448 1.37229 1.38006 1.38779 1.39546 1.4031 1.41068 1.41821 1.4257 1.43313 1.44052 1.44785 1.45514 1.46236 1.46954 1.47666 1.48372 1.49073 1.49767 1.50456 1.51138 1.51814 1.52483 1.53144 1.53799 1.54446 
0.725176 0.734032 0.742892 0.751757 0.760631 0.769513 0.778404 0.787306 0.79622 0.805144 0.814081 0.823028 0.831987 0.840957 0.849936 0.858926 0.867923 0.876929 0.885941 0.894959 0.903982 0.913008 0.922038 0.931068 0.940099 0.94913 0.958159 0.967185 0.976208 0.985226 0.994237 1.00324 1.01224 1.02123 1.03021 1.03917 1.04813 1.05707 1.06601 1.07492 1.08382 1.09271 1.10157 1.11042 1.11925 1.12806 1.13685 1.14562 1.15437 1.16309 1.17179 1.18046 1.18911 1.19773 1.20632 1.21489 1.22342 1.23193 1.2404 1.24885 1.25726 1.26564 1.27398 1.28229 1.29056 1.2988 1.307 1.31516 1.32328 1.33137 1.33941 1.34741 1.35537 1.36329 1.37116 1.37899 1.38677 1.39451 1.40221 1.40985 1.41745 1.425 1.4325 1.43995 1.44735 1.4547 1.46199 1.46923 1.47642 1.48355 1.49062 1.49764 1.50459 1.51148 1.51831 1.52507 1.53176 1.53838 1.54493 1.5514 
0.732053 0.740911 0.749773 0.75864 0.767514 0.776396 0.785286 0.794185 0.803094 0.812014 0.820943 0.829883 0.838833 0.847792 0.856761 0.865738 0.874723 0.883715 0.892713 0.901717 0.910725 0.919737 0.928751 0.937767 0.946783 0.955799 0.964813 0.973825 0.982834 0.991837 1.00084 1.00983 1.01881 1.02779 1.03676 1.04571 1.05466 1.06359 1.07251 1.08142 1.09031 1.09919 1.10805 1.11689 1.12572 1.13452 1.14331 1.15207 1.16082 1.16954 1.17823 1.18691 1.19555 1.20418 1.21277 1.22134 1.22988 1.23839 1.24687 1.25532 1.26373 1.27212 1.28047 1.28879 1.29707 1.30531 1.31352 1.32169 1.32983 1.33792 1.34598 1.35399 1.36196 1.36989 1.37778 1.38562 1.39342 1.40117 1.40888 1.41654 1.42415 1.43171 1.43923 1.44669 1.4541 1.46146 1.46877 1.47603 1.48322 1.49036 1.49745 1.50447 1.51143 1.51833 1.52516 1.53193 1.53862 1.54525 1.5518 1.55827 
0.738857 0.747716 0.756579 0.765447 0.774321 0.783201 0.792089 0.800985 0.809889 0.818803 0.827726 0.836658 0.845599 0.854549 0.863507 0.872473 0.881446 0.890425 0.899411 0.908401 0.917395 0.926393 0.935393 0.944395 0.953397 0.962399 0.971399 0.980397 0.989392 0.998383 1.00737 1.01635 1.02532 1.03429 1.04324 1.05219 1.06112 1.07005 1.07896 1.08786 1.09674 1.10561 1.11447 1.1233 1.13212 1.14092 1.14971 1.15847 1.16721 1.17593 1.18462 1.19329 1.20194 1.21057 1.21916 1.22773 1.23627 1.24479 1.25327 1.26172 1.27015 1.27854 1.2869 1.29522 1.30351 1.31176 1.31998 1.32816 1.33631 1.34441 1.35248 1.3605 1.36849 1.37643 1.38433 1.39218 1.39999 1.40776 1.41548 1.42315 1.43078 1.43836 1.44588 1.45336 1.46079 1.46816 1.47548 1.48274 1.48995 1.4971 1.50419 1.51122 1.51819 1.5251 1.53194 1.53871 1.54541 1.55204 1.55859 1.56507 
0.745588 0.754448 0.763311 0.772178 0.78105 0.789929 0.798814 0.807706 0.816606 0.825514 0.83443 0.843355 0.852287 0.861228 0.870176 0.879131 0.888093 0.89706 0.906033 0.915011 0.923992 0.932977 0.941964 0.950952 0.959941 0.968929 0.977917 0.986902 0.995884 1.00486 1.01384 1.0228 1.03176 1.04072 1.04966 1.0586 1.06753 1.07644 1.08534 1.09424 1.10311 1.11198 1.12082 1.12965 1.13847 1.14727 1.15604 1.1648 1.17354 1.18226 1.19095 1.19962 1.20827 1.21689 1.22549 1.23406 1.24261 1.25113 1.25961 1.26807 1.2765 1.2849 1.29326 1.30159 1.30989 1.31815 1.32638 1.33457 1.34272 1.35084 1.35891 1.36695 1.37495 1.3829 1.39081 1.39868 1.4065 1.41428 1.42202 1.4297 1.43734 1.44493 1.45247 1.45996 1.4674 1.47478 1.48211 1.48939 1.4966 1.50376 1.51086 1.5179 1.52488 1.53179 1.53864 1.54542 1.55212 1.55876 1.56532 1.5718 
0.752246 0.761105 0.769967 0.778833 0.787703 0.796579 0.805461 0.814349 0.823244 0.832146 0.841056 0.849973 0.858898 0.867829 0.876768 0.885713 0.894664 0.90362 0.912582 0.921547 0.930517 0.939489 0.948463 0.957439 0.966415 0.975391 0.984366 0.993339 1.00231 1.01127 1.02024 1.02919 1.03814 1.04709 1.05602 1.06495 1.07387 1.08277 1.09167 1.10055 1.10942 1.11828 1.12712 1.13594 1.14475 1.15355 1.16232 1.17108 1.17981 1.18853 1.19722 1.20589 1.21454 1.22317 1.23176 1.24034 1.24889 1.25741 1.2659 1.27436 1.28279 1.2912 1.29957 1.3079 1.31621 1.32448 1.33271 1.34091 1.34908 1.3572 1.36529 1.37333 1.38134 1.38931 1.39723 1.40511 1.41294 1.42073 1.42848 1.43618 1.44383 1.45143 1.45898 1.46648 1.47393 1.48133 1.48867 1.49595 1.50318 1.51035 1.51746 1.52451 1.53149 1.53841 1.54527 1.55205 1.55876 1.5654 1.57197 1.57845 
0.758831 0.767688 0.776549 0.785412 0.79428 0.803153 0.812031 0.820915 0.829805 0.838701 0.847605 0.856514 0.865431 0.874354 0.883283 0.892219 0.90116 0.910105 0.919056 0.92801 0.936968 0.945929 0.954891 0.963855 0.972819 0.981783 0.990746 0.999707 1.00867 1.01762 1.02657 1.03552 1.04446 1.05339 1.06232 1.07123 1.08014 1.08904 1.09793 1.1068 1.11567 1.12452 1.13335 1.14217 1.15098 1.15977 1.16854 1.17729 1.18603 1.19474 1.20343 1.2121 1.22075 1.22938 1.23798 1.24655 1.2551 1.26363 1.27212 1.28059 1.28903 1.29743 1.30581 1.31415 1.32247 1.33074 1.33899 1.34719 1.35537 1.3635 1.3716 1.37965 1.38767 1.39564 1.40358 1.41147 1.41932 1.42712 1.43487 1.44258 1.45025 1.45786 1.46542 1.47293 1.48039 1.4878 1.49515 1.50245 1.50969 1.51686 1.52398 1.53104 1.53803 1.54496 1.55182 1.55861 1.56533 1.57197 1.57854 1.58503 
0.765341 0.774197 0.783054 0.791916 0.80078 0.80965 0.818524 0.827403 0.836288 0.845179 0.854076 0.862979 0.871888 0.880803 0.889723 0.898649 0.907581 0.916516 0.925456 0.9344 0.943347 0.952297 0.961248 0.9702 0.979153 0.988106 0.997058 1.00601 1.01496 1.0239 1.03284 1.04178 1.05071 1.05963 1.06855 1.07746 1.08636 1.09525 1.10413 1.113 1.12185 1.1307 1.13953 1.14834 1.15714 1.16593 1.1747 1.18345 1.19218 1.20089 1.20958 1.21825 1.2269 1.23553 1.24413 1.25271 1.26126 1.26979 1.27828 1.28676 1.2952 1.30361 1.31199 1.32034 1.32866 1.33695 1.3452 1.35341 1.36159 1.36973 1.37784 1.38591 1.39393 1.40192 1.40986 1.41776 1.42562 1.43343 1.4412 1.44892 1.45659 1.46422 1.47179 1.47931 1.48678 1.4942 1.50156 1.50887 1.51611 1.5233 1.53043 1.53749 1.54449 1.55143 1.55829 1.56509 1.57182 1.57847 1.58504 1.59154 
0.771777 0.78063 0.789485 0.798343 0.807204 0.81607 0.82494 0.833815 0.842694 0.85158 0.86047 0.869366 0.878268 0.887175 0.896087 0.905005 0.913927 0.922853 0.931784 0.940717 0.949654 0.958593 0.967534 0.976476 0.985418 0.99436 1.0033 1.01224 1.02118 1.03011 1.03904 1.04797 1.05689 1.06581 1.07472 1.08362 1.09251 1.10139 1.11026 1.11913 1.12798 1.13682 1.14564 1.15445 1.16325 1.17203 1.18079 1.18954 1.19827 1.20698 1.21567 1.22434 1.23299 1.24162 1.25022 1.2588 1.26736 1.27588 1.28439 1.29286 1.30131 1.30973 1.31811 1.32647 1.33479 1.34309 1.35134 1.35957 1.36775 1.3759 1.38402 1.39209 1.40013 1.40812 1.41608 1.42399 1.43186 1.43968 1.44746 1.45519 1.46287 1.47051 1.47809 1.48562 1.4931 1.50053 1.5079 1.51521 1.52247 1.52967 1.5368 1.54387 1.55088 1.55782 1.5647 1.5715 1.57823 1.58489 1.59147 1.59797 
0.778137 0.786987 0.795839 0.804694 0.813552 0.822414 0.831279 0.840149 0.849024 0.857903 0.866788 0.875677 0.884572 0.893472 0.902376 0.911285 0.920199 0.929116 0.938037 0.946961 0.955888 0.964818 0.973749 0.982681 0.991613 1.00055 1.00948 1.01841 1.02734 1.03626 1.04518 1.0541 1.06301 1.07192 1.08082 1.08971 1.0986 1.10747 1.11634 1.12519 1.13404 1.14287 1.15169 1.1605 1.16929 1.17807 1.18683 1.19558 1.2043 1.21301 1.2217 1.23037 1.23902 1.24765 1.25625 1.26483 1.27339 1.28192 1.29043 1.29891 1.30736 1.31578 1.32417 1.33253 1.34086 1.34916 1.35743 1.36566 1.37385 1.38201 1.39013 1.39822 1.40626 1.41426 1.42223 1.43015 1.43803 1.44586 1.45365 1.46139 1.46908 1.47672 1.48432 1.49186 1.49935 1.50678 1.51416 1.52149 1.52875 1.53596 1.5431 1.55018 1.55719 1.56414 1.57102 1.57783 1.58457 1.59123 1.59782 1.60433 
0.784422 0.793269 0.802118 0.810969 0.819823 0.828681 0.837542 0.846407 0.855277 0.864151 0.873029 0.881912 0.8908 0.899693 0.90859 0.917491 0.926396 0.935305 0.944218 0.953133 0.962051 0.970971 0.979893 0.988815 0.997738 1.00666 1.01558 1.0245 1.03342 1.04234 1.05125 1.06016 1.06907 1.07796 1.08686 1.09574 1.10462 1.11349 1.12235 1.1312 1.14004 1.14887 1.15768 1.16649 1.17528 1.18405 1.19281 1.20155 1.21028 1.21898 1.22767 1.23634 1.24499 1.25362 1.26223 1.27081 1.27937 1.2879 1.29641 1.30489 1.31335 1.32177 1.33017 1.33854 1.34687 1.35518 1.36345 1.37168 1.37989 1.38805 1.39618 1.40427 1.41233 1.42034 1.42831 1.43624 1.44413 1.45197 1.45976 1.46751 1.47522 1.48287 1.49047 1.49802 1.50552 1.51297 1.52035 1.52769 1.53496 1.54217 1.54932 1.55641 1.56343 1.57039 1.57727 1.58409 1.59083 1.5975 1.6041 1.61061 
0.790631 0.799474 0.808319 0.817167 0.826017 0.834871 0.843728 0.852588 0.861453 0.870321 0.879194 0.888071 0.896953 0.905838 0.914728 0.923622 0.93252 0.941421 0.950325 0.959232 0.968141 0.977053 0.985966 0.994879 1.00379 1.01271 1.02162 1.03053 1.03944 1.04835 1.05726 1.06616 1.07505 1.08395 1.09283 1.10171 1.11058 1.11944 1.1283 1.13714 1.14598 1.1548 1.16361 1.17241 1.1812 1.18997 1.19872 1.20747 1.21619 1.2249 1.23358 1.24225 1.2509 1.25953 1.26814 1.27672 1.28528 1.29382 1.30233 1.31081 1.31927 1.3277 1.3361 1.34448 1.35282 1.36113 1.3694 1.37765 1.38586 1.39403 1.40217 1.41027 1.41833 1.42635 1.43433 1.44226 1.45016 1.45801 1.46581 1.47357 1.48128 1.48895 1.49656 1.50412 1.51162 1.51908 1.52647 1.53381 1.54109 1.54831 1.55547 1.56256 1.56959 1.57656 1.58345 1.59027 1.59702 1.6037 1.6103 1.61682 
0.796762 0.805602 0.814444 0.823288 0.832135 0.840984 0.849837 0.858693 0.867552 0.876416 0.885283 0.894154 0.90303 0.911909 0.920792 0.929679 0.938569 0.947463 0.956359 0.965258 0.97416 0.983063 0.991968 1.00087 1.00978 1.01869 1.02759 1.0365 1.0454 1.0543 1.0632 1.07209 1.08098 1.08986 1.09874 1.10761 1.11648 1.12534 1.13418 1.14302 1.15185 1.16067 1.16948 1.17828 1.18706 1.19583 1.20458 1.21332 1.22204 1.23075 1.23943 1.2481 1.25675 1.26538 1.27399 1.28257 1.29114 1.29967 1.30819 1.31668 1.32514 1.33357 1.34198 1.35035 1.3587 1.36702 1.3753 1.38355 1.39176 1.39994 1.40809 1.41619 1.42426 1.43229 1.44027 1.44822 1.45612 1.46398 1.47179 1.47956 1.48728 1.49495 1.50257 1.51014 1.51765 1.52511 1.53252 1.53986 1.54715 1.55438 1.56154 1.56864 1.57568 1.58265 1.58955 1.59638 1.60313 1.60982 1.61642 1.62295 
0.802817 0.811654 0.820492 0.829332 0.838175 0.84702 0.855868 0.86472 0.873575 0.882433 0.891295 0.900161 0.909031 0.917904 0.926781 0.935661 0.944544 0.953431 0.96232 0.971212 0.980106 0.989002 0.997899 1.0068 1.0157 1.02459 1.03349 1.04239 1.05128 1.06018 1.06907 1.07795 1.08684 1.09571 1.10459 1.11345 1.12231 1.13116 1.14001 1.14884 1.15767 1.16648 1.17529 1.18408 1.19286 1.20162 1.21037 1.21911 1.22783 1.23654 1.24522 1.25389 1.26254 1.27117 1.27978 1.28836 1.29693 1.30547 1.31399 1.32248 1.33094 1.33938 1.34779 1.35617 1.36452 1.37284 1.38113 1.38938 1.3976 1.40579 1.41394 1.42205 1.43013 1.43816 1.44616 1.45411 1.46202 1.46988 1.47771 1.48548 1.49321 1.50088 1.50851 1.51609 1.52361 1.53108 1.53849 1.54584 1.55314 1.56037 1.56754 1.57465 1.58169 1.58867 1.59557 1.60241 1.60917 1.61586 1.62247 1.629 
0.808794 0.817627 0.826462 0.835298 0.844137 0.852979 0.861823 0.87067 0.87952 0.888374 0.897231 0.906092 0.914956 0.923823 0.932694 0.941568 0.950446 0.959326 0.968208 0.977094 0.985981 0.994869 1.00376 1.01265 1.02154 1.03043 1.03932 1.04821 1.0571 1.06599 1.07487 1.08375 1.09263 1.1015 1.11037 1.11923 1.12808 1.13693 1.14577 1.1546 1.16342 1.17223 1.18103 1.18982 1.19859 1.20736 1.21611 1.22484 1.23356 1.24226 1.25095 1.25962 1.26827 1.2769 1.28551 1.29409 1.30266 1.3112 1.31972 1.32822 1.33668 1.34512 1.35354 1.36192 1.37028 1.3786 1.38689 1.39515 1.40338 1.41157 1.41973 1.42785 1.43593 1.44397 1.45197 1.45993 1.46785 1.47572 1.48355 1.49133 1.49906 1.50675 1.51438 1.52196 1.52949 1.53697 1.54438 1.55175 1.55905 1.56629 1.57347 1.58058 1.58763 1.59461 1.60152 1.60836 1.61513 1.62182 1.62844 1.63497 
0.814692 0.823522 0.832353 0.841187 0.850022 0.85886 0.8677 0.876543 0.885389 0.894238 0.903091 0.911947 0.920806 0.929668 0.938533 0.947402 0.956273 0.965147 0.974024 0.982902 0.991783 1.00067 1.00955 1.01843 1.02732 1.0362 1.04509 1.05397 1.06285 1.07173 1.08061 1.08948 1.09836 1.10722 1.11608 1.12494 1.13379 1.14263 1.15146 1.16029 1.16911 1.17791 1.18671 1.1955 1.20427 1.21303 1.22178 1.23051 1.23923 1.24793 1.25662 1.26528 1.27393 1.28256 1.29117 1.29976 1.30833 1.31687 1.3254 1.33389 1.34236 1.35081 1.35922 1.36761 1.37597 1.3843 1.3926 1.40086 1.40909 1.41729 1.42545 1.43358 1.44166 1.44971 1.45772 1.46568 1.47361 1.48148 1.48932 1.49711 1.50485 1.51254 1.52018 1.52777 1.5353 1.54278 1.55021 1.55758 1.56488 1.57213 1.57931 1.58643 1.59349 1.60047 1.60739 1.61424 1.62101 1.62771 1.63433 1.64087 