# vtk DataFile Version 3.0
cell
ASCII
DATASET STRUCTURED_POINTS
DIMENSIONS 100 100 1
ORIGIN 0 0 0
SPACING 0.010000 0.010000 1
POINT_DATA 10000
SCALARS sample_scalars double
LOOKUP_TABLE default
0.557648 0.563942 0.572141 0.581104 0.59042 0.599918 0.609521 0.619187 0.628892 0.638621 0.648365 0.658117 0.667872 0.677626 0.687376 0.69712 0.706855 0.716579 0.726291 0.73599 0.745673 0.755339 0.764988 0.774617 0.784227 0.793815 0.80338 0.812922 0.82244 0.831932 0.841397 0.850835 0.860244 0.869623 0.878972 0.888289 0.897574 0.906825 0.916042 0.925224 0.93437 0.943478 0.952548 0.96158 0.970571 0.979522 0.988431 0.997298 1.00612 1.0149 1.02363 1.03232 1.04096 1.04956 1.0581 1.0666 1.07504 1.08344 1.09178 1.10007 1.10831 1.11649 1.12462 1.13269 1.1407 1.14866 1.15656 1.1644 1.17218 1.1799 1.18757 1.19516 1.2027 1.21017 1.21758 1.22493 1.23221 1.23942 1.24657 1.25365 1.26067 1.26761 1.27449 1.28131 1.28805 1.29473 1.30133 1.30788 1.31435 1.32076 1.32711 1.3334 1.33963 1.34583 1.35199 1.35816 1.3644 1.37082 1.37773 1.386 
0.569434 0.57572 0.583358 0.591797 0.600702 0.609886 0.619246 0.62872 0.638269 0.647871 0.657508 0.667168 0.676844 0.686529 0.696218 0.705908 0.715594 0.725274 0.734946 0.744608 0.754258 0.763893 0.773513 0.783117 0.792701 0.802267 0.811811 0.821333 0.830832 0.840306 0.849755 0.859177 0.868572 0.877938 0.887275 0.89658 0.905854 0.915096 0.924304 0.933477 0.942614 0.951716 0.96078 0.969805 0.978792 0.987738 0.996643 1.00551 1.01433 1.0231 1.03184 1.04052 1.04917 1.05776 1.06631 1.0748 1.08325 1.09165 1.09999 1.10829 1.11653 1.12472 1.13285 1.14093 1.14895 1.15692 1.16482 1.17268 1.18047 1.1882 1.19587 1.20348 1.21103 1.21852 1.22595 1.23331 1.24061 1.24784 1.25501 1.26212 1.26916 1.27614 1.28305 1.28989 1.29667 1.30339 1.31005 1.31664 1.32317 1.32965 1.33608 1.34247 1.34883 1.35516 1.36152 1.36792 1.37447 1.38128 1.38862 1.3969 
0.579259 0.586089 0.593719 0.601966 0.610645 0.619619 0.628796 0.638115 0.647533 0.657021 0.666561 0.676138 0.68574 0.69536 0.704992 0.714629 0.724269 0.733906 0.74354 0.753166 0.762783 0.772388 0.78198 0.791557 0.801118 0.810661 0.820184 0.829686 0.839167 0.848624 0.858057 0.867464 0.876845 0.886197 0.895521 0.904816 0.914079 0.92331 0.932509 0.941674 0.950804 0.959898 0.968955 0.977975 0.986957 0.995898 1.0048 1.01366 1.02248 1.03125 1.03998 1.04867 1.05731 1.06591 1.07445 1.08295 1.0914 1.0998 1.10815 1.11645 1.12469 1.13289 1.14103 1.14911 1.15714 1.16511 1.17303 1.18089 1.18869 1.19644 1.20412 1.21175 1.21931 1.22681 1.23425 1.24163 1.24895 1.25621 1.2634 1.27053 1.27759 1.2846 1.29154 1.29841 1.30523 1.31199 1.31869 1.32533 1.33192 1.33847 1.34497 1.35144 1.3579 1.36436 1.37085 1.37741 1.38413 1.39109 1.39843 1.4063 
0.588262 0.5956 0.603405 0.611643 0.620232 0.629088 0.638144 0.647348 0.656661 0.666057 0.675513 0.685016 0.694552 0.704112 0.71369 0.723279 0.732874 0.742471 0.752067 0.761659 0.771245 0.780821 0.790386 0.799938 0.809475 0.818995 0.828498 0.837981 0.847443 0.856883 0.8663 0.875693 0.885059 0.894399 0.903711 0.912994 0.922246 0.931468 0.940658 0.949814 0.958936 0.968023 0.977074 0.986089 0.995065 1.004 1.0129 1.02176 1.03057 1.03935 1.04807 1.05676 1.0654 1.074 1.08254 1.09104 1.0995 1.1079 1.11625 1.12455 1.1328 1.141 1.14915 1.15724 1.16527 1.17326 1.18118 1.18905 1.19686 1.20462 1.21231 1.21995 1.22753 1.23505 1.2425 1.2499 1.25723 1.26451 1.27172 1.27887 1.28596 1.29299 1.29996 1.30687 1.31372 1.32052 1.32726 1.33395 1.34059 1.34719 1.35376 1.3603 1.36684 1.37338 1.37997 1.38662 1.39341 1.40037 1.40759 1.41508 
0.596853 0.604585 0.612599 0.620911 0.629492 0.638296 0.647281 0.656407 0.665644 0.674966 0.684354 0.693793 0.703271 0.712779 0.722308 0.731852 0.741406 0.750965 0.760526 0.770086 0.779641 0.789189 0.798728 0.808255 0.817769 0.827268 0.836751 0.846215 0.85566 0.865083 0.874484 0.883862 0.893215 0.902542 0.911842 0.921114 0.930356 0.939568 0.948748 0.957896 0.967011 0.976091 0.985136 0.994145 1.00312 1.01205 1.02094 1.0298 1.03861 1.04738 1.05611 1.06479 1.07343 1.08203 1.09058 1.09908 1.10753 1.11594 1.12429 1.1326 1.14085 1.14906 1.15721 1.16531 1.17335 1.18134 1.18927 1.19715 1.20497 1.21274 1.22045 1.2281 1.23569 1.24322 1.25069 1.2581 1.26546 1.27275 1.27998 1.28716 1.29427 1.30132 1.30832 1.31526 1.32214 1.32897 1.33575 1.34248 1.34917 1.35582 1.36244 1.36904 1.37563 1.38224 1.38887 1.39557 1.40236 1.40928 1.41634 1.42353 
0.605199 0.613228 0.621436 0.62985 0.638466 0.647263 0.656214 0.665293 0.674476 0.683743 0.693077 0.702464 0.711893 0.721354 0.73084 0.740344 0.74986 0.759385 0.768913 0.778442 0.787969 0.79749 0.807004 0.816508 0.826 0.835478 0.844941 0.854387 0.863814 0.873222 0.882608 0.891971 0.901311 0.910625 0.919913 0.929174 0.938406 0.947609 0.95678 0.96592 0.975027 0.984101 0.993139 1.00214 1.01111 1.02004 1.02893 1.03778 1.04659 1.05536 1.06408 1.07277 1.08141 1.09 1.09855 1.10706 1.11551 1.12392 1.13228 1.14059 1.14885 1.15706 1.16521 1.17332 1.18137 1.18936 1.19731 1.20519 1.21303 1.2208 1.22852 1.23618 1.24379 1.25133 1.25882 1.26625 1.27362 1.28093 1.28818 1.29537 1.30251 1.30959 1.31661 1.32358 1.33049 1.33735 1.34416 1.35093 1.35765 1.36434 1.371 1.37765 1.38428 1.39092 1.39759 1.40429 1.41106 1.41789 1.42481 1.43178 
0.613377 0.621633 0.630008 0.638527 0.647198 0.656011 0.664954 0.674009 0.683158 0.692387 0.70168 0.711025 0.720413 0.729835 0.739283 0.748751 0.758234 0.767727 0.777225 0.786726 0.796226 0.805722 0.815212 0.824693 0.834165 0.843623 0.853067 0.862496 0.871906 0.881298 0.89067 0.900019 0.909346 0.918648 0.927924 0.937174 0.946396 0.955589 0.964752 0.973884 0.982984 0.992051 1.00108 1.01008 1.01904 1.02797 1.03685 1.0457 1.05451 1.06328 1.072 1.08068 1.08932 1.09792 1.10647 1.11497 1.12343 1.13184 1.1402 1.14852 1.15678 1.165 1.17316 1.18127 1.18933 1.19733 1.20528 1.21318 1.22102 1.2288 1.23653 1.24421 1.25182 1.25938 1.26688 1.27433 1.28171 1.28904 1.29631 1.30352 1.31068 1.31778 1.32483 1.33182 1.33875 1.34564 1.35248 1.35928 1.36604 1.37276 1.37945 1.38613 1.39279 1.39945 1.40612 1.41281 1.41954 1.4263 1.43309 1.43989 
0.621428 0.62986 0.638373 0.646991 0.655723 0.664568 0.673519 0.682566 0.691696 0.700899 0.710162 0.719475 0.728831 0.73822 0.747636 0.757073 0.766525 0.775989 0.78546 0.794935 0.80441 0.813883 0.823351 0.832811 0.842262 0.851702 0.861128 0.87054 0.879934 0.889311 0.898668 0.908004 0.917318 0.926608 0.935874 0.945113 0.954325 0.963509 0.972664 0.981788 0.990881 0.999941 1.00897 1.01796 1.02692 1.03584 1.04472 1.05356 1.06237 1.07113 1.07986 1.08854 1.09718 1.10577 1.11433 1.12283 1.13129 1.13971 1.14807 1.15639 1.16466 1.17287 1.18104 1.18916 1.19722 1.20523 1.21319 1.2211 1.22895 1.23674 1.24448 1.25217 1.25979 1.26737 1.27488 1.28234 1.28974 1.29709 1.30437 1.3116 1.31878 1.3259 1.33297 1.33998 1.34694 1.35385 1.36072 1.36754 1.37433 1.38107 1.38779 1.39448 1.40116 1.40783 1.41449 1.42116 1.42784 1.43453 1.44122 1.44789 
0.629373 0.637943 0.646573 0.655279 0.664072 0.672954 0.681923 0.690973 0.700096 0.709283 0.718525 0.727815 0.737144 0.746507 0.755895 0.765306 0.774732 0.78417 0.793617 0.803068 0.81252 0.821971 0.831418 0.840859 0.850291 0.859713 0.869122 0.878517 0.887897 0.897259 0.906602 0.915925 0.925227 0.934506 0.94376 0.95299 0.962192 0.971367 0.980514 0.98963 0.998716 1.00777 1.01679 1.02578 1.03473 1.04365 1.05252 1.06137 1.07017 1.07893 1.08765 1.09634 1.10497 1.11357 1.12212 1.13063 1.13909 1.14751 1.15588 1.1642 1.17247 1.18069 1.18886 1.19699 1.20506 1.21308 1.22104 1.22895 1.23681 1.24462 1.25237 1.26006 1.2677 1.27529 1.28282 1.29029 1.2977 1.30506 1.31237 1.31961 1.32681 1.33395 1.34103 1.34807 1.35505 1.36198 1.36887 1.37571 1.38252 1.38928 1.39602 1.40272 1.40941 1.41607 1.42273 1.42937 1.436 1.44263 1.44923 1.4558 
0.637224 0.645907 0.654633 0.663416 0.672267 0.681188 0.690181 0.699241 0.708364 0.717543 0.726772 0.736045 0.745354 0.754695 0.764062 0.773449 0.782853 0.792269 0.801693 0.811122 0.820554 0.829985 0.839413 0.848835 0.85825 0.867655 0.877048 0.886428 0.895793 0.905141 0.914471 0.923782 0.933072 0.942339 0.951583 0.960803 0.969996 0.979163 0.988301 0.99741 1.00649 1.01554 1.02455 1.03353 1.04248 1.05139 1.06027 1.06911 1.07791 1.08667 1.09539 1.10407 1.11271 1.12131 1.12986 1.13837 1.14683 1.15525 1.16362 1.17194 1.18022 1.18845 1.19662 1.20475 1.21283 1.22085 1.22883 1.23675 1.24462 1.25243 1.26019 1.2679 1.27555 1.28314 1.29068 1.29817 1.3056 1.31297 1.32029 1.32755 1.33476 1.34192 1.34902 1.35607 1.36307 1.37002 1.37693 1.38379 1.39061 1.39739 1.40413 1.41085 1.41753 1.42419 1.43083 1.43744 1.44404 1.4506 1.45713 1.46362 
0.644991 0.653766 0.662572 0.671423 0.680326 0.689287 0.698305 0.707379 0.716507 0.725685 0.734906 0.744167 0.753462 0.762786 0.772134 0.781503 0.790887 0.800283 0.809688 0.819098 0.828511 0.837924 0.847334 0.856739 0.866137 0.875526 0.884904 0.89427 0.903621 0.912956 0.922274 0.931572 0.940851 0.950108 0.959342 0.968552 0.977736 0.986895 0.996025 1.00513 1.0142 1.02324 1.03225 1.04123 1.05017 1.05908 1.06795 1.07679 1.08558 1.09434 1.10306 1.11174 1.12038 1.12898 1.13753 1.14604 1.15451 1.16293 1.1713 1.17963 1.18791 1.19614 1.20432 1.21246 1.22054 1.22857 1.23655 1.24448 1.25235 1.26018 1.26795 1.27566 1.28332 1.29093 1.29848 1.30598 1.31342 1.32081 1.32814 1.33542 1.34264 1.34981 1.35693 1.364 1.37101 1.37798 1.3849 1.39177 1.39861 1.40539 1.41215 1.41886 1.42554 1.43219 1.43881 1.4454 1.45196 1.45847 1.46494 1.47136 
0.652678 0.661528 0.670403 0.679313 0.688264 0.697261 0.706305 0.715396 0.724533 0.733713 0.742931 0.752185 0.761469 0.77078 0.780114 0.789466 0.798834 0.808213 0.817601 0.826994 0.83639 0.845786 0.85518 0.86457 0.873953 0.883327 0.892691 0.902043 0.91138 0.920703 0.930009 0.939296 0.948564 0.95781 0.967035 0.976236 0.985412 0.994562 1.00368 1.01278 1.02185 1.03088 1.03989 1.04886 1.0578 1.0667 1.07557 1.0844 1.0932 1.10195 1.11067 1.11935 1.12799 1.13659 1.14514 1.15365 1.16212 1.17054 1.17892 1.18725 1.19553 1.20377 1.21196 1.2201 1.22818 1.23622 1.24421 1.25214 1.26003 1.26786 1.27564 1.28336 1.29103 1.29865 1.30621 1.31372 1.32117 1.32857 1.33592 1.34321 1.35045 1.35763 1.36476 1.37184 1.37887 1.38585 1.39278 1.39967 1.40651 1.4133 1.42006 1.42677 1.43345 1.44009 1.44669 1.45325 1.45977 1.46624 1.47266 1.47902 
0.660289 0.669202 0.678136 0.687096 0.69609 0.70512 0.71419 0.723299 0.732447 0.741632 0.75085 0.7601 0.769377 0.778679 0.788001 0.79734 0.806694 0.816059 0.825432 0.83481 0.844191 0.853572 0.862951 0.872326 0.881695 0.891055 0.900406 0.909745 0.91907 0.928381 0.937675 0.946952 0.956209 0.965446 0.974661 0.983853 0.993021 1.00216 1.01128 1.02037 1.02943 1.03846 1.04746 1.05642 1.06536 1.07426 1.08312 1.09195 1.10075 1.1095 1.11822 1.1269 1.13554 1.14413 1.15269 1.1612 1.16967 1.17809 1.18647 1.19481 1.2031 1.21133 1.21953 1.22767 1.23576 1.24381 1.2518 1.25974 1.26764 1.27547 1.28326 1.29099 1.29867 1.3063 1.31387 1.32139 1.32886 1.33627 1.34362 1.35093 1.35818 1.36537 1.37252 1.37961 1.38665 1.39364 1.40058 1.40747 1.41432 1.42112 1.42787 1.43459 1.44126 1.44788 1.45446 1.461 1.46749 1.47393 1.4803 1.48662 
0.667825 0.676792 0.685775 0.69478 0.703812 0.712874 0.721968 0.731095 0.740255 0.749446 0.758667 0.767916 0.777188 0.786483 0.795796 0.805125 0.814467 0.82382 0.83318 0.842545 0.851912 0.86128 0.870645 0.880007 0.889363 0.898711 0.908049 0.917376 0.92669 0.93599 0.945273 0.95454 0.963787 0.973015 0.982221 0.991405 1.00056 1.0097 1.01881 1.02789 1.03694 1.04597 1.05496 1.06393 1.07286 1.08175 1.09061 1.09944 1.10823 1.11699 1.1257 1.13438 1.14302 1.15162 1.16017 1.16869 1.17716 1.18558 1.19396 1.2023 1.21059 1.21884 1.22703 1.23518 1.24328 1.25133 1.25933 1.26728 1.27518 1.28302 1.29082 1.29856 1.30625 1.31388 1.32146 1.32899 1.33647 1.34389 1.35126 1.35857 1.36583 1.37304 1.38019 1.38729 1.39434 1.40134 1.40829 1.41519 1.42204 1.42884 1.43559 1.4423 1.44896 1.45558 1.46214 1.46866 1.47512 1.48152 1.48786 1.49414 
0.675288 0.684302 0.693327 0.702371 0.711436 0.720527 0.729644 0.738788 0.747961 0.75716 0.766385 0.775634 0.784904 0.794194 0.803501 0.812822 0.822154 0.831496 0.840845 0.850198 0.859554 0.868909 0.878263 0.887612 0.896956 0.906292 0.915619 0.924935 0.934238 0.943527 0.952801 0.962058 0.971296 0.980515 0.989713 0.998888 1.00804 1.01717 1.02627 1.03535 1.04439 1.05341 1.0624 1.07136 1.08029 1.08918 1.09804 1.10687 1.11565 1.12441 1.13312 1.1418 1.15044 1.15903 1.16759 1.1761 1.18458 1.193 1.20139 1.20973 1.21802 1.22627 1.23447 1.24262 1.25073 1.25878 1.26679 1.27474 1.28265 1.2905 1.2983 1.30605 1.31375 1.32139 1.32898 1.33652 1.34401 1.35144 1.35881 1.36614 1.3734 1.38062 1.38778 1.39489 1.40195 1.40896 1.41591 1.42282 1.42967 1.43647 1.44322 1.44993 1.45658 1.46318 1.46973 1.47622 1.48266 1.48904 1.49535 1.50159 
0.682679 0.691732 0.700795 0.709873 0.718968 0.728084 0.737222 0.746384 0.755569 0.764777 0.774007 0.783258 0.792527 0.801814 0.811116 0.82043 0.829755 0.839088 0.848427 0.85777 0.867115 0.87646 0.885803 0.895141 0.904474 0.9138 0.923116 0.932422 0.941715 0.950994 0.960258 0.969506 0.978735 0.987946 0.997136 1.0063 1.01545 1.02457 1.03367 1.04274 1.05178 1.06079 1.06978 1.07873 1.08765 1.09654 1.1054 1.11422 1.12301 1.13176 1.14048 1.14915 1.15779 1.16639 1.17494 1.18346 1.19193 1.20036 1.20875 1.21709 1.22539 1.23364 1.24184 1.25 1.25811 1.26617 1.27418 1.28214 1.29005 1.29791 1.30572 1.31348 1.32118 1.32883 1.33643 1.34398 1.35147 1.35891 1.36629 1.37363 1.3809 1.38813 1.3953 1.40242 1.40948 1.41649 1.42345 1.43036 1.43721 1.44401 1.45076 1.45746 1.46411 1.4707 1.47723 1.48371 1.49012 1.49647 1.50276 1.50897 
0.689999 0.699086 0.708181 0.717288 0.726411 0.73555 0.744708 0.753885 0.763082 0.772299 0.781535 0.790789 0.800059 0.809344 0.818642 0.827951 0.83727 0.846595 0.855927 0.865261 0.874597 0.883932 0.893265 0.902594 0.911917 0.921232 0.930539 0.939835 0.949119 0.958389 0.967644 0.976883 0.986105 0.995307 1.00449 1.01365 1.02279 1.0319 1.04099 1.05006 1.0591 1.0681 1.07708 1.08603 1.09495 1.10384 1.11269 1.12151 1.1303 1.13905 1.14776 1.15644 1.16507 1.17367 1.18223 1.19074 1.19922 1.20765 1.21604 1.22439 1.23269 1.24094 1.24915 1.25731 1.26542 1.27349 1.2815 1.28947 1.29739 1.30525 1.31307 1.32083 1.32854 1.3362 1.34381 1.35136 1.35886 1.36631 1.3737 1.38104 1.38833 1.39556 1.40273 1.40986 1.41693 1.42394 1.43091 1.43781 1.44467 1.45147 1.45822 1.46491 1.47154 1.47812 1.48464 1.4911 1.4975 1.50383 1.51009 1.51628 
0.697247 0.706364 0.715487 0.724621 0.733767 0.742927 0.752103 0.761295 0.770504 0.77973 0.788972 0.798229 0.8075 0.816785 0.826081 0.835386 0.8447 0.854019 0.863344 0.87267 0.881998 0.891325 0.900649 0.909969 0.919283 0.92859 0.937887 0.947174 0.956449 0.965711 0.974958 0.984189 0.993403 1.0026 1.01177 1.02093 1.03006 1.03917 1.04825 1.05731 1.06634 1.07535 1.08432 1.09327 1.10219 1.11107 1.11992 1.12874 1.13752 1.14627 1.15498 1.16366 1.17229 1.18089 1.18945 1.19797 1.20644 1.21487 1.22327 1.23161 1.23992 1.24817 1.25638 1.26455 1.27267 1.28074 1.28876 1.29673 1.30465 1.31252 1.32034 1.32811 1.33583 1.3435 1.35111 1.35867 1.36618 1.37363 1.38103 1.38838 1.39567 1.40291 1.41009 1.41722 1.42429 1.43131 1.43828 1.44519 1.45204 1.45884 1.46558 1.47227 1.4789 1.48547 1.49198 1.49842 1.5048 1.51111 1.51735 1.52352 
0.704424 0.713566 0.722715 0.731872 0.741039 0.750218 0.75941 0.768616 0.777836 0.787071 0.796319 0.80558 0.814854 0.824138 0.833433 0.842736 0.852045 0.86136 0.870678 0.879998 0.889319 0.898638 0.907955 0.917267 0.926573 0.935871 0.945161 0.95444 0.963707 0.972961 0.9822 0.991423 1.00063 1.00982 1.01899 1.02813 1.03726 1.04636 1.05544 1.0645 1.07352 1.08252 1.09149 1.10044 1.10935 1.11823 1.12708 1.1359 1.14468 1.15342 1.16213 1.17081 1.17944 1.18804 1.1966 1.20512 1.21359 1.22203 1.23042 1.23877 1.24708 1.25534 1.26355 1.27172 1.27984 1.28792 1.29594 1.30392 1.31185 1.31972 1.32755 1.33533 1.34305 1.35072 1.35834 1.36591 1.37342 1.38088 1.38829 1.39564 1.40294 1.41018 1.41737 1.4245 1.43158 1.4386 1.44557 1.45248 1.45933 1.46613 1.47287 1.47955 1.48617 1.49273 1.49923 1.50566 1.51202 1.51832 1.52454 1.53069 
0.711529 0.720694 0.729865 0.739042 0.748229 0.757425 0.766632 0.775851 0.785081 0.794324 0.803578 0.812844 0.82212 0.831406 0.840699 0.85 0.859307 0.868617 0.877931 0.887245 0.89656 0.905873 0.915182 0.924487 0.933786 0.943077 0.952358 0.96163 0.97089 0.980136 0.989368 0.998585 1.00778 1.01697 1.02613 1.03527 1.04439 1.05349 1.06256 1.07161 1.08063 1.08963 1.0986 1.10754 1.11645 1.12532 1.13417 1.14298 1.15176 1.16051 1.16922 1.17789 1.18653 1.19512 1.20368 1.2122 1.22068 1.22912 1.23751 1.24586 1.25417 1.26243 1.27065 1.27882 1.28695 1.29503 1.30306 1.31104 1.31897 1.32685 1.33468 1.34247 1.3502 1.35787 1.3655 1.37307 1.38059 1.38806 1.39547 1.40282 1.41013 1.41738 1.42457 1.4317 1.43878 1.44581 1.45278 1.45969 1.46654 1.47334 1.48007 1.48675 1.49336 1.49991 1.5064 1.51282 1.51917 1.52545 1.53165 1.53779 
0.718563 0.727748 0.736938 0.746134 0.755337 0.764549 0.773769 0.783 0.79224 0.801491 0.810752 0.820022 0.829301 0.838587 0.847881 0.85718 0.866485 0.875792 0.885101 0.894411 0.90372 0.913027 0.922331 0.931629 0.940921 0.950205 0.95948 0.968745 0.977998 0.987238 0.996463 1.00567 1.01487 1.02404 1.0332 1.04233 1.05145 1.06054 1.06961 1.07865 1.08767 1.09667 1.10563 1.11457 1.12347 1.13235 1.14119 1.15 1.15878 1.16752 1.17623 1.18491 1.19354 1.20214 1.2107 1.21922 1.2277 1.23614 1.24453 1.25288 1.26119 1.26946 1.27768 1.28586 1.29399 1.30207 1.3101 1.31809 1.32602 1.33391 1.34175 1.34953 1.35727 1.36495 1.37258 1.38016 1.38768 1.39515 1.40257 1.40993 1.41724 1.42449 1.43169 1.43883 1.44591 1.45294 1.45991 1.46682 1.47367 1.48046 1.48719 1.49386 1.50047 1.50701 1.51349 1.5199 1.52624 1.5325 1.5387 1.54481 
0.725525 0.734728 0.743935 0.753147 0.762366 0.771591 0.780824 0.790065 0.799315 0.808573 0.81784 0.827114 0.836396 0.845684 0.854979 0.864277 0.87358 0.882884 0.89219 0.901496 0.910801 0.920103 0.929401 0.938693 0.947979 0.957257 0.966526 0.975785 0.985031 0.994265 1.00348 1.01269 1.02188 1.03105 1.0402 1.04933 1.05844 1.06752 1.07659 1.08563 1.09464 1.10363 1.11259 1.12153 1.13043 1.1393 1.14814 1.15695 1.16573 1.17447 1.18318 1.19185 1.20049 1.20908 1.21764 1.22616 1.23464 1.24308 1.25148 1.25984 1.26815 1.27642 1.28464 1.29282 1.30095 1.30904 1.31707 1.32506 1.333 1.3409 1.34874 1.35653 1.36427 1.37195 1.37959 1.38717 1.3947 1.40218 1.4096 1.41696 1.42427 1.43153 1.43873 1.44587 1.45296 1.45998 1.46695 1.47386 1.48071 1.4875 1.49423 1.50089 1.50749 1.51403 1.5205 1.5269 1.53323 1.53948 1.54567 1.55177 
0.732414 0.741633 0.750856 0.760083 0.769314 0.778552 0.787797 0.797048 0.806306 0.815572 0.824844 0.834123 0.843408 0.852698 0.861993 0.871291 0.880592 0.889895 0.899198 0.9085 0.917801 0.927099 0.936392 0.945679 0.95496 0.964232 0.973496 0.982748 0.991989 1.00122 1.01043 1.01963 1.02881 1.03798 1.04712 1.05625 1.06535 1.07444 1.0835 1.09253 1.10154 1.11053 1.11948 1.12841 1.13731 1.14619 1.15502 1.16383 1.17261 1.18135 1.19006 1.19873 1.20736 1.21596 1.22452 1.23304 1.24152 1.24996 1.25836 1.26672 1.27503 1.2833 1.29153 1.29971 1.30785 1.31593 1.32397 1.33197 1.33991 1.34781 1.35565 1.36345 1.37119 1.37888 1.38652 1.39411 1.40164 1.40912 1.41655 1.42392 1.43123 1.43849 1.44569 1.45284 1.45992 1.46695 1.47392 1.48083 1.48768 1.49446 1.50119 1.50785 1.51444 1.52097 1.52743 1.53382 1.54014 1.54639 1.55256 1.55865 
0.739231 0.748464 0.7577 0.76694 0.776184 0.785434 0.794688 0.803949 0.813215 0.822487 0.831765 0.841048 0.850336 0.859628 0.868924 0.878222 0.887522 0.896823 0.906124 0.915424 0.924721 0.934015 0.943304 0.952587 0.961863 0.97113 0.980388 0.989636 0.998871 1.00809 1.0173 1.0265 1.03567 1.04483 1.05397 1.06309 1.0722 1.08127 1.09033 1.09936 1.10837 1.11735 1.12631 1.13523 1.14413 1.153 1.16184 1.17064 1.17942 1.18816 1.19686 1.20553 1.21417 1.22276 1.23132 1.23985 1.24833 1.25677 1.26517 1.27353 1.28185 1.29012 1.29835 1.30653 1.31467 1.32276 1.3308 1.3388 1.34675 1.35465 1.3625 1.37029 1.37804 1.38574 1.39338 1.40097 1.40851 1.41599 1.42342 1.43079 1.43811 1.44537 1.45258 1.45972 1.46681 1.47384 1.48081 1.48772 1.49456 1.50135 1.50807 1.51472 1.52131 1.52784 1.53429 1.54067 1.54698 1.55322 1.55938 1.56547 
0.745975 0.755221 0.764469 0.773721 0.782976 0.792235 0.801499 0.810768 0.820041 0.82932 0.838603 0.84789 0.857181 0.866475 0.875772 0.885071 0.894371 0.903671 0.91297 0.922267 0.931561 0.940851 0.950137 0.959416 0.968687 0.97795 0.987204 0.996447 1.00568 1.0149 1.0241 1.03329 1.04246 1.05162 1.06075 1.06987 1.07896 1.08804 1.09709 1.10612 1.11512 1.1241 1.13305 1.14198 1.15087 1.15974 1.16858 1.17738 1.18615 1.19489 1.2036 1.21227 1.2209 1.2295 1.23806 1.24658 1.25506 1.26351 1.27191 1.28027 1.28859 1.29686 1.30509 1.31328 1.32142 1.32951 1.33756 1.34556 1.35351 1.36141 1.36927 1.37707 1.38482 1.39252 1.40017 1.40776 1.4153 1.42279 1.43022 1.43759 1.44491 1.45218 1.45938 1.46653 1.47362 1.48065 1.48762 1.49452 1.50137 1.50815 1.51487 1.52152 1.5281 1.53462 1.54107 1.54745 1.55375 1.55998 1.56613 1.57221 
0.752645 0.761902 0.771162 0.780424 0.789689 0.798958 0.80823 0.817506 0.826787 0.836071 0.845359 0.85465 0.863944 0.87324 0.882538 0.891838 0.901137 0.910436 0.919734 0.929029 0.938321 0.947608 0.95689 0.966166 0.975434 0.984693 0.993942 1.00318 1.01241 1.02162 1.03082 1.04 1.04917 1.05832 1.06746 1.07657 1.08566 1.09473 1.10378 1.11281 1.12181 1.13078 1.13973 1.14865 1.15755 1.16641 1.17524 1.18405 1.19282 1.20156 1.21026 1.21893 1.22756 1.23616 1.24472 1.25324 1.26173 1.27017 1.27857 1.28694 1.29526 1.30353 1.31176 1.31995 1.3281 1.33619 1.34424 1.35224 1.3602 1.3681 1.37596 1.38377 1.39152 1.39922 1.40687 1.41447 1.42201 1.4295 1.43694 1.44432 1.45164 1.4589 1.46611 1.47326 1.48035 1.48738 1.49434 1.50125 1.50809 1.51487 1.52159 1.52824 1.53482 1.54133 1.54777 1.55414 1.56044 1.56666 1.57281 1.57887 
0.759241 0.768508 0.777778 0.787049 0.796324 0.805601 0.814881 0.824164 0.833451 0.84274 0.852033 0.861328 0.870625 0.879923 0.889223 0.898523 0.907823 0.917121 0.926418 0.935711 0.945001 0.954286 0.963565 0.972837 0.982101 0.991357 1.0006 1.00984 1.01906 1.02827 1.03746 1.04665 1.05581 1.06496 1.07408 1.08319 1.09228 1.10135 1.1104 1.11942 1.12842 1.13739 1.14633 1.15525 1.16415 1.17301 1.18184 1.19064 1.19941 1.20815 1.21685 1.22552 1.23415 1.24275 1.25131 1.25984 1.26832 1.27676 1.28517 1.29353 1.30185 1.31013 1.31836 1.32655 1.3347 1.3428 1.35085 1.35886 1.36681 1.37472 1.38258 1.39039 1.39815 1.40585 1.4135 1.4211 1.42865 1.43614 1.44358 1.45096 1.45828 1.46555 1.47276 1.47991 1.487 1.49403 1.50099 1.5079 1.51474 1.52152 1.52823 1.53487 1.54145 1.54796 1.5544 1.56076 1.56705 1.57327 1.57941 1.58547 
0.765763 0.775039 0.784318 0.793598 0.80288 0.812165 0.821452 0.830742 0.840034 0.849329 0.858626 0.867924 0.877224 0.886525 0.895826 0.905127 0.914427 0.923725 0.93302 0.942313 0.9516 0.960883 0.97016 0.979429 0.988691 0.997943 1.00719 1.01642 1.02564 1.03484 1.04403 1.05321 1.06237 1.07151 1.08064 1.08974 1.09883 1.10789 1.11694 1.12596 1.13495 1.14392 1.15287 1.16178 1.17067 1.17953 1.18836 1.19716 1.20593 1.21467 1.22337 1.23204 1.24067 1.24927 1.25783 1.26635 1.27484 1.28328 1.29169 1.30005 1.30837 1.31665 1.32489 1.33308 1.34123 1.34933 1.35739 1.36539 1.37335 1.38126 1.38913 1.39694 1.4047 1.4124 1.42006 1.42766 1.43521 1.4427 1.45014 1.45753 1.46485 1.47212 1.47933 1.48648 1.49357 1.5006 1.50756 1.51447 1.52131 1.52808 1.53479 1.54143 1.54801 1.55451 1.56094 1.5673 1.57359 1.5798 1.58593 1.59198 
0.772209 0.781494 0.79078 0.800069 0.809358 0.81865 0.827944 0.83724 0.846537 0.855837 0.865137 0.874439 0.883742 0.893045 0.902347 0.911649 0.920949 0.930247 0.939542 0.948833 0.95812 0.967401 0.976675 0.985943 0.995201 1.00445 1.01369 1.02292 1.03213 1.04134 1.05053 1.0597 1.06886 1.078 1.08712 1.09622 1.1053 1.11436 1.1234 1.13242 1.14141 1.15038 1.15932 1.16824 1.17712 1.18598 1.19481 1.20361 1.21238 1.22111 1.22982 1.23848 1.24712 1.25571 1.26428 1.2728 1.28128 1.28973 1.29814 1.3065 1.31482 1.32311 1.33134 1.33954 1.34769 1.35579 1.36385 1.37186 1.37982 1.38773 1.39559 1.40341 1.41117 1.41888 1.42654 1.43414 1.44169 1.44919 1.45663 1.46401 1.47134 1.47861 1.48582 1.49297 1.50006 1.50709 1.51406 1.52096 1.5278 1.53457 1.54128 1.54792 1.55449 1.56099 1.56741 1.57377 1.58005 1.58625 1.59238 1.59843 
0.77858 0.787873 0.797166 0.806461 0.815758 0.825056 0.834356 0.843657 0.85296 0.862263 0.871568 0.880873 0.890178 0.899483 0.908788 0.91809 0.927391 0.936689 0.945984 0.955274 0.964559 0.973839 0.983111 0.992376 1.00163 1.01088 1.02012 1.02934 1.03855 1.04775 1.05694 1.06611 1.07526 1.0844 1.09352 1.10262 1.1117 1.12076 1.1298 1.13881 1.1478 1.15677 1.1657 1.17462 1.1835 1.19236 1.20119 1.20999 1.21875 1.22749 1.23619 1.24486 1.25349 1.26209 1.27065 1.27917 1.28766 1.2961 1.30451 1.31288 1.3212 1.32948 1.33772 1.34592 1.35407 1.36217 1.37023 1.37824 1.38621 1.39412 1.40199 1.4098 1.41757 1.42528 1.43294 1.44055 1.4481 1.4556 1.46304 1.47042 1.47775 1.48502 1.49223 1.49938 1.50647 1.5135 1.52047 1.52737 1.53421 1.54098 1.54768 1.55432 1.56089 1.56738 1.5738 1.58016 1.58643 1.59263 1.59875 1.6048 
0.784875 0.794174 0.803475 0.812776 0.822079 0.831383 0.840688 0.849995 0.859302 0.868609 0.877918 0.887226 0.896534 0.905841 0.915146 0.92445 0.933752 0.94305 0.952344 0.961634 0.970918 0.980196 0.989467 0.998731 1.00799 1.01723 1.02646 1.03569 1.0449 1.05409 1.06328 1.07244 1.0816 1.09073 1.09985 1.10894 1.11802 1.12708 1.13611 1.14512 1.15411 1.16307 1.17201 1.18092 1.18981 1.19866 1.20749 1.21629 1.22505 1.23379 1.24249 1.25115 1.25979 1.26838 1.27695 1.28547 1.29396 1.3024 1.31081 1.31918 1.3275 1.33579 1.34403 1.35222 1.36038 1.36848 1.37654 1.38456 1.39252 1.40044 1.40831 1.41612 1.42389 1.4316 1.43927 1.44687 1.45443 1.46193 1.46937 1.47676 1.48409 1.49136 1.49857 1.50572 1.51281 1.51984 1.5268 1.5337 1.54054 1.54731 1.55401 1.56064 1.56721 1.5737 1.58012 1.58647 1.59274 1.59893 1.60505 1.61109 
0.791093 0.800399 0.809705 0.819013 0.828321 0.837631 0.846941 0.856252 0.865563 0.874875 0.884186 0.893497 0.902808 0.912117 0.921424 0.930729 0.940031 0.94933 0.958624 0.967913 0.977197 0.986474 0.995744 1.00501 1.01426 1.0235 1.03273 1.04195 1.05116 1.06036 1.06954 1.0787 1.08785 1.09698 1.1061 1.11519 1.12427 1.13332 1.14235 1.15136 1.16035 1.16931 1.17825 1.18716 1.19604 1.20489 1.21372 1.22251 1.23128 1.24001 1.24871 1.25738 1.26601 1.27461 1.28317 1.29169 1.30018 1.30863 1.31703 1.3254 1.33373 1.34201 1.35026 1.35845 1.36661 1.37471 1.38278 1.39079 1.39876 1.40668 1.41455 1.42237 1.43013 1.43785 1.44551 1.45312 1.46068 1.46818 1.47562 1.48301 1.49034 1.49761 1.50482 1.51197 1.51906 1.52609 1.53306 1.53995 1.54679 1.55356 1.56026 1.56689 1.57345 1.57994 1.58635 1.5927 1.59897 1.60516 1.61127 1.61731 
0.797234 0.806545 0.815858 0.82517 0.834484 0.843799 0.853113 0.862429 0.871744 0.881059 0.890374 0.899688 0.909001 0.918312 0.92762 0.936927 0.946229 0.955528 0.964823 0.974112 0.983395 0.992671 1.00194 1.0112 1.02045 1.02969 1.03892 1.04814 1.05735 1.06654 1.07572 1.08488 1.09403 1.10316 1.11227 1.12136 1.13043 1.13949 1.14852 1.15752 1.16651 1.17547 1.1844 1.19331 1.20219 1.21105 1.21987 1.22866 1.23743 1.24616 1.25486 1.26353 1.27216 1.28076 1.28932 1.29784 1.30633 1.31478 1.32318 1.33155 1.33988 1.34817 1.35641 1.36461 1.37276 1.38087 1.38894 1.39695 1.40492 1.41284 1.42071 1.42853 1.4363 1.44402 1.45168 1.45929 1.46685 1.47435 1.4818 1.48919 1.49652 1.50379 1.511 1.51815 1.52524 1.53227 1.53923 1.54613 1.55296 1.55973 1.56642 1.57305 1.57961 1.5861 1.59251 1.59885 1.60512 1.6113 1.61741 1.62344 
0.803297 0.812614 0.821931 0.831249 0.840568 0.849887 0.859206 0.868525 0.877844 0.887163 0.89648 0.905797 0.915112 0.924425 0.933735 0.943043 0.952346 0.961646 0.97094 0.980229 0.989512 0.998788 1.00806 1.01731 1.02656 1.0358 1.04503 1.05425 1.06345 1.07265 1.08182 1.09098 1.10013 1.10925 1.11836 1.12746 1.13653 1.14558 1.1546 1.16361 1.17259 1.18155 1.19048 1.19939 1.20827 1.21712 1.22595 1.23474 1.2435 1.25223 1.26093 1.2696 1.27823 1.28683 1.29539 1.30391 1.3124 1.32085 1.32926 1.33763 1.34596 1.35424 1.36249 1.37069 1.37884 1.38695 1.39502 1.40303 1.411 1.41893 1.4268 1.43462 1.44239 1.45011 1.45777 1.46539 1.47294 1.48045 1.48789 1.49528 1.50261 1.50988 1.5171 1.52425 1.53134 1.53836 1.54532 1.55222 1.55905 1.56582 1.57251 1.57914 1.58569 1.59218 1.59859 1.60493 1.61119 1.61737 1.62348 1.62951 
0.809283 0.818604 0.827926 0.837248 0.846571 0.855895 0.865218 0.874541 0.883863 0.893185 0.902506 0.911825 0.921142 0.930457 0.939769 0.949077 0.958382 0.967682 0.976977 0.986266 0.995548 1.00482 1.01409 1.02335 1.0326 1.04184 1.05106 1.06028 1.06948 1.07867 1.08785 1.09701 1.10615 1.11527 1.12438 1.13347 1.14254 1.15159 1.16062 1.16962 1.1786 1.18756 1.19649 1.2054 1.21427 1.22312 1.23195 1.24074 1.2495 1.25823 1.26693 1.2756 1.28423 1.29283 1.30139 1.30991 1.3184 1.32685 1.33526 1.34363 1.35196 1.36024 1.36849 1.37669 1.38484 1.39296 1.40102 1.40904 1.41701 1.42493 1.43281 1.44063 1.4484 1.45612 1.46379 1.4714 1.47896 1.48646 1.49391 1.5013 1.50863 1.5159 1.52311 1.53026 1.53735 1.54438 1.55134 1.55823 1.56506 1.57183 1.57852 1.58515 1.5917 1.59818 1.60459 1.61092 1.61718 1.62336 1.62947 1.63549 
0.815189 0.824515 0.833841 0.843168 0.852495 0.861822 0.871149 0.880476 0.889802 0.899126 0.90845 0.917771 0.92709 0.936407 0.945721 0.95503 0.964336 0.973637 0.982932 0.992221 1.0015 1.01078 1.02005 1.0293 1.03855 1.04779 1.05702 1.06623 1.07543 1.08462 1.09379 1.10295 1.11209 1.12122 1.13032 1.13941 1.14848 1.15752 1.16655 1.17555 1.18453 1.19349 1.20242 1.21132 1.2202 1.22905 1.23787 1.24666 1.25542 1.26416 1.27285 1.28152 1.29015 1.29875 1.30731 1.31583 1.32432 1.33277 1.34118 1.34955 1.35788 1.36617 1.37441 1.38261 1.39077 1.39888 1.40695 1.41497 1.42294 1.43086 1.43874 1.44656 1.45433 1.46205 1.46972 1.47734 1.4849 1.4924 1.49985 1.50724 1.51457 1.52184 1.52905 1.5362 1.54329 1.55031 1.55727 1.56417 1.571 1.57776 1.58445 1.59107 1.59762 1.6041 1.61051 1.61684 1.6231 1.62927 1.63537 1.64139 