# vtk DataFile Version 3.0
cell
ASCII
DATASET STRUCTURED_POINTS
DIMENSIONS 100 100 1
ORIGIN 0 0 0
SPACING 0.010000 0.010000 1
POINT_DATA 10000
SCALARS sample_scalars double
LOOKUP_TABLE default
0.557656 0.563959 0.572166 0.581138 0.590462 0.599969 0.60958 0.619254 0.628967 0.638704 0.648456 0.658216 0.667979 0.677741 0.687499 0.69725 0.706992 0.716724 0.726443 0.736148 0.745838 0.755511 0.765167 0.774803 0.784418 0.794012 0.803583 0.813131 0.822654 0.832151 0.841621 0.851064 0.860477 0.869861 0.879214 0.888535 0.897823 0.907078 0.916298 0.925483 0.934631 0.943742 0.952815 0.961848 0.970841 0.979794 0.988704 0.997572 1.0064 1.01518 1.02391 1.0326 1.04124 1.04983 1.05837 1.06687 1.07531 1.08371 1.09205 1.10033 1.10857 1.11675 1.12487 1.13294 1.14095 1.14891 1.1568 1.16464 1.17242 1.18013 1.18779 1.19538 1.20291 1.21038 1.21778 1.22512 1.23239 1.2396 1.24674 1.25382 1.26083 1.26777 1.27464 1.28145 1.28818 1.29485 1.30145 1.30798 1.31445 1.32085 1.32719 1.33347 1.3397 1.34589 1.35205 1.35821 1.36443 1.37084 1.37775 1.38601 
0.569451 0.575754 0.583409 0.591865 0.600786 0.609987 0.619364 0.628854 0.63842 0.648037 0.65769 0.667367 0.677058 0.686759 0.696463 0.706167 0.715869 0.725563 0.73525 0.744926 0.754589 0.764238 0.773871 0.783487 0.793084 0.802661 0.812217 0.82175 0.83126 0.840745 0.850204 0.859635 0.869039 0.878414 0.887759 0.897072 0.906353 0.915602 0.924816 0.933995 0.943138 0.952244 0.961312 0.970342 0.979332 0.988281 0.997188 1.00605 1.01488 1.02365 1.03239 1.04107 1.04971 1.05831 1.06685 1.07534 1.08379 1.09218 1.10052 1.10881 1.11705 1.12523 1.13336 1.14143 1.14945 1.15741 1.16531 1.17315 1.18093 1.18865 1.19632 1.20392 1.21146 1.21893 1.22635 1.2337 1.24098 1.24821 1.25536 1.26246 1.26948 1.27644 1.28334 1.29017 1.29694 1.30364 1.31028 1.31686 1.32338 1.32984 1.33625 1.34262 1.34896 1.35528 1.36162 1.36801 1.37454 1.38133 1.38866 1.39691 
0.579285 0.586139 0.593795 0.602067 0.610771 0.61977 0.628973 0.638316 0.647758 0.657271 0.666835 0.676435 0.686061 0.695705 0.705359 0.715019 0.72468 0.73434 0.743995 0.753642 0.763279 0.772904 0.782516 0.792112 0.801691 0.811252 0.820792 0.830312 0.839808 0.849281 0.858729 0.86815 0.877545 0.88691 0.896247 0.905553 0.914827 0.924069 0.933277 0.94245 0.951588 0.96069 0.969754 0.978779 0.987766 0.996712 1.00562 1.01448 1.0233 1.03208 1.04081 1.04949 1.05813 1.06672 1.07527 1.08376 1.09221 1.1006 1.10895 1.11724 1.12548 1.13366 1.14179 1.14987 1.15789 1.16585 1.17375 1.1816 1.18939 1.19712 1.20479 1.2124 1.21994 1.22743 1.23485 1.24222 1.24951 1.25675 1.26392 1.27103 1.27808 1.28506 1.29198 1.29883 1.30563 1.31236 1.31904 1.32566 1.33223 1.33875 1.34523 1.35167 1.3581 1.36454 1.371 1.37754 1.38423 1.39117 1.39849 1.40633 
0.588296 0.595667 0.603506 0.611778 0.6204 0.62929 0.638378 0.647615 0.656961 0.666389 0.675878 0.685412 0.694979 0.704571 0.714179 0.723798 0.733422 0.743049 0.752673 0.762293 0.771906 0.781508 0.791099 0.800676 0.810238 0.819782 0.829308 0.838814 0.848298 0.857759 0.867195 0.876607 0.885992 0.895349 0.904677 0.913975 0.923243 0.932478 0.94168 0.950848 0.959981 0.969078 0.978138 0.98716 0.996142 1.00509 1.01399 1.02285 1.03167 1.04044 1.04917 1.05786 1.06649 1.07509 1.08363 1.09213 1.10057 1.10897 1.11731 1.1256 1.13384 1.14203 1.15016 1.15824 1.16627 1.17423 1.18214 1.18999 1.19779 1.20552 1.2132 1.22082 1.22837 1.23587 1.2433 1.25067 1.25799 1.26523 1.27242 1.27955 1.28661 1.29361 1.30055 1.30743 1.31425 1.32102 1.32773 1.33439 1.341 1.34756 1.3541 1.36061 1.36711 1.37362 1.38017 1.38679 1.39354 1.40048 1.40766 1.41511 
0.596895 0.604669 0.612725 0.62108 0.629702 0.638548 0.647574 0.656741 0.666018 0.675381 0.684809 0.694288 0.703805 0.713351 0.722918 0.732499 0.74209 0.751686 0.761282 0.770877 0.780466 0.790047 0.799618 0.809177 0.818722 0.828251 0.837762 0.847254 0.856726 0.866176 0.875602 0.885003 0.894379 0.903728 0.913048 0.922339 0.931599 0.940828 0.950025 0.959187 0.968315 0.977408 0.986463 0.995481 1.00446 1.0134 1.0223 1.03116 1.03997 1.04875 1.05748 1.06616 1.0748 1.08339 1.09193 1.10043 1.10888 1.11727 1.12562 1.13391 1.14215 1.15034 1.15848 1.16656 1.17459 1.18256 1.19047 1.19833 1.20613 1.21387 1.22155 1.22918 1.23674 1.24425 1.25169 1.25907 1.26639 1.27366 1.28086 1.288 1.29507 1.30209 1.30905 1.31596 1.3228 1.3296 1.33633 1.34303 1.34967 1.35628 1.36286 1.36942 1.37597 1.38254 1.38913 1.39579 1.40253 1.4094 1.41642 1.42357 
0.605249 0.613329 0.621588 0.630052 0.638718 0.647564 0.656564 0.665692 0.674924 0.68424 0.693622 0.703056 0.712532 0.722039 0.731571 0.741119 0.75068 0.760248 0.769819 0.779389 0.788957 0.798518 0.808071 0.817612 0.827141 0.836655 0.846153 0.855632 0.865092 0.87453 0.883946 0.893338 0.902705 0.912045 0.921358 0.930642 0.939896 0.949119 0.958309 0.967467 0.97659 0.985678 0.994729 1.00374 1.01272 1.02166 1.03055 1.03941 1.04822 1.05699 1.06572 1.0744 1.08304 1.09163 1.10018 1.10867 1.11712 1.12552 1.13386 1.14216 1.15041 1.1586 1.16674 1.17482 1.18285 1.19082 1.19874 1.2066 1.21441 1.22216 1.22985 1.23748 1.24505 1.25256 1.26001 1.26741 1.27474 1.28201 1.28923 1.29638 1.30347 1.31051 1.31749 1.32441 1.33128 1.33809 1.34486 1.35158 1.35826 1.3649 1.37151 1.3781 1.38469 1.39128 1.39789 1.40455 1.41126 1.41805 1.42491 1.43183 
0.613436 0.621751 0.630184 0.638762 0.64749 0.656362 0.665363 0.674475 0.683681 0.692965 0.702314 0.711715 0.721157 0.730633 0.740134 0.749655 0.759189 0.768732 0.778279 0.787829 0.797376 0.806919 0.816454 0.82598 0.835493 0.844994 0.854478 0.863945 0.873394 0.882822 0.892228 0.901611 0.910969 0.920301 0.929606 0.938883 0.948131 0.957347 0.966532 0.975685 0.984803 0.993887 1.00293 1.01195 1.02092 1.02985 1.03875 1.0476 1.05641 1.06518 1.07391 1.08259 1.09123 1.09982 1.10836 1.11686 1.1253 1.1337 1.14205 1.15035 1.15859 1.16679 1.17493 1.18302 1.19105 1.19903 1.20695 1.21482 1.22263 1.23038 1.23808 1.24571 1.25329 1.26081 1.26827 1.27568 1.28302 1.2903 1.29753 1.30469 1.3118 1.31885 1.32585 1.33279 1.33968 1.34651 1.3533 1.36004 1.36674 1.37341 1.38004 1.38666 1.39326 1.39987 1.40648 1.41311 1.41978 1.42648 1.43321 1.43995 
0.621495 0.629994 0.638574 0.647259 0.656057 0.664968 0.673985 0.683097 0.692292 0.701559 0.710885 0.720262 0.729679 0.739129 0.748606 0.758102 0.767613 0.777135 0.786662 0.796192 0.805722 0.815247 0.824767 0.834277 0.843777 0.853264 0.862737 0.872192 0.88163 0.891048 0.900445 0.909819 0.919169 0.928493 0.937791 0.947061 0.956303 0.965514 0.974693 0.983841 0.992954 1.00203 1.01108 1.02008 1.02905 1.03799 1.04688 1.05573 1.06454 1.07331 1.08203 1.09071 1.09935 1.10794 1.11648 1.12498 1.13343 1.14183 1.15018 1.15847 1.16672 1.17492 1.18306 1.19115 1.19919 1.20717 1.2151 1.22297 1.23078 1.23854 1.24624 1.25389 1.26147 1.269 1.27647 1.28388 1.29123 1.29852 1.30576 1.31294 1.32006 1.32712 1.33413 1.34109 1.34799 1.35484 1.36165 1.36841 1.37513 1.38181 1.38846 1.39509 1.4017 1.4083 1.4149 1.42151 1.42812 1.43474 1.44136 1.44796 
0.629448 0.638094 0.646798 0.655579 0.664446 0.673403 0.682446 0.691569 0.700764 0.710023 0.719337 0.728697 0.738096 0.747527 0.756984 0.766461 0.775953 0.785456 0.794965 0.804478 0.813991 0.823502 0.833007 0.842504 0.851991 0.861466 0.870927 0.880372 0.889799 0.899208 0.908595 0.917961 0.927303 0.93662 0.945912 0.955175 0.964411 0.973616 0.982791 0.991933 1.00104 1.01012 1.01916 1.02816 1.03713 1.04606 1.05495 1.0638 1.0726 1.08137 1.09009 1.09877 1.10741 1.116 1.12454 1.13304 1.14149 1.14989 1.15824 1.16654 1.17479 1.18299 1.19113 1.19922 1.20726 1.21525 1.22318 1.23105 1.23887 1.24664 1.25434 1.26199 1.26958 1.27712 1.28459 1.29201 1.29937 1.30668 1.31392 1.32111 1.32824 1.33532 1.34234 1.34931 1.35623 1.36309 1.36991 1.37668 1.38342 1.39011 1.39677 1.4034 1.41001 1.41661 1.42318 1.42975 1.43631 1.44286 1.44938 1.45587 
0.637308 0.646074 0.654882 0.663749 0.672682 0.681685 0.690759 0.699901 0.709104 0.718363 0.727671 0.737022 0.746409 0.755826 0.765267 0.774729 0.784205 0.793692 0.803187 0.812685 0.822184 0.831681 0.841173 0.850657 0.860133 0.869597 0.879047 0.888482 0.8979 0.9073 0.916679 0.926037 0.935371 0.944682 0.953966 0.963224 0.972453 0.981654 0.990823 0.999961 1.00907 1.01814 1.02717 1.03617 1.04514 1.05406 1.06295 1.0718 1.0806 1.08937 1.09809 1.10677 1.1154 1.12399 1.13254 1.14103 1.14948 1.15788 1.16624 1.17454 1.18279 1.19099 1.19914 1.20723 1.21527 1.22326 1.2312 1.23907 1.2469 1.25467 1.26238 1.27003 1.27763 1.28517 1.29265 1.30008 1.30745 1.31476 1.32201 1.32921 1.33635 1.34344 1.35047 1.35745 1.36438 1.37125 1.37808 1.38487 1.39161 1.39831 1.40497 1.4116 1.4182 1.42478 1.43134 1.43787 1.44438 1.45086 1.4573 1.4637 
0.645083 0.653948 0.662846 0.671787 0.680781 0.689831 0.698939 0.708102 0.717319 0.726584 0.735892 0.745238 0.754618 0.764025 0.773456 0.782906 0.792369 0.801844 0.811326 0.820812 0.830298 0.839783 0.849263 0.858737 0.868202 0.877655 0.887096 0.896522 0.905931 0.915322 0.924694 0.934044 0.943372 0.952676 0.961954 0.971206 0.98043 0.989625 0.99879 1.00792 1.01702 1.02609 1.03513 1.04412 1.05308 1.06201 1.07089 1.07974 1.08854 1.0973 1.10603 1.1147 1.12334 1.13193 1.14047 1.14897 1.15742 1.16582 1.17417 1.18247 1.19072 1.19893 1.20708 1.21517 1.22322 1.23121 1.23915 1.24703 1.25486 1.26263 1.27034 1.278 1.28561 1.29315 1.30064 1.30807 1.31545 1.32277 1.33003 1.33724 1.34439 1.35148 1.35852 1.36551 1.37244 1.37933 1.38616 1.39295 1.3997 1.4064 1.41306 1.41969 1.42628 1.43284 1.43937 1.44587 1.45233 1.45875 1.46513 1.47145 
0.652778 0.661727 0.670701 0.679709 0.688758 0.697853 0.706994 0.716182 0.725415 0.73469 0.744002 0.753349 0.762725 0.772127 0.78155 0.790991 0.800445 0.80991 0.819381 0.828856 0.838333 0.847807 0.857277 0.866741 0.876196 0.885641 0.895073 0.90449 0.913891 0.923275 0.932639 0.941983 0.951304 0.960601 0.969874 0.97912 0.988339 0.99753 1.00669 1.01582 1.02492 1.03398 1.04301 1.052 1.06096 1.06988 1.07877 1.08761 1.09641 1.10517 1.11389 1.12257 1.1312 1.13979 1.14833 1.15683 1.16528 1.17368 1.18204 1.19034 1.19859 1.2068 1.21495 1.22305 1.2311 1.23909 1.24703 1.25492 1.26275 1.27052 1.27824 1.28591 1.29351 1.30107 1.30856 1.316 1.32338 1.33071 1.33797 1.34519 1.35234 1.35944 1.36649 1.37348 1.38043 1.38732 1.39416 1.40095 1.4077 1.4144 1.42106 1.42767 1.43425 1.44079 1.44729 1.45376 1.46018 1.46655 1.47287 1.47913 
0.660396 0.669417 0.678456 0.687523 0.696623 0.705759 0.714934 0.724148 0.733399 0.742686 0.752006 0.761356 0.770733 0.780132 0.789551 0.798986 0.808433 0.81789 0.827353 0.836819 0.846286 0.855752 0.865214 0.874669 0.884115 0.893552 0.902976 0.912386 0.92178 0.931156 0.940514 0.949851 0.959166 0.968458 0.977725 0.986966 0.99618 1.00537 1.01452 1.02365 1.03274 1.0418 1.05083 1.05982 1.06877 1.07769 1.08657 1.09541 1.10422 1.11298 1.12169 1.13037 1.139 1.14759 1.15613 1.16463 1.17308 1.18148 1.18984 1.19814 1.2064 1.2146 1.22276 1.23086 1.23891 1.2469 1.25485 1.26273 1.27057 1.27835 1.28607 1.29374 1.30135 1.30891 1.31641 1.32385 1.33124 1.33857 1.34584 1.35306 1.36022 1.36733 1.37438 1.38138 1.38832 1.39522 1.40206 1.40885 1.4156 1.4223 1.42895 1.43556 1.44212 1.44864 1.45512 1.46155 1.46793 1.47425 1.48052 1.48673 
0.66794 0.677022 0.686119 0.695238 0.704384 0.713559 0.722765 0.732004 0.741275 0.750577 0.759906 0.769262 0.778642 0.788041 0.797458 0.806889 0.816332 0.825783 0.835239 0.844699 0.854159 0.863617 0.873071 0.882519 0.891958 0.901387 0.910804 0.920207 0.929595 0.938965 0.948316 0.957648 0.966957 0.976244 0.985506 0.994742 1.00395 1.01313 1.02229 1.03141 1.0405 1.04955 1.05858 1.06757 1.07652 1.08543 1.09431 1.10315 1.11195 1.12071 1.12943 1.1381 1.14674 1.15532 1.16387 1.17236 1.18081 1.18922 1.19757 1.20588 1.21413 1.22234 1.23049 1.2386 1.24665 1.25465 1.26259 1.27048 1.27832 1.2861 1.29383 1.3015 1.30912 1.31668 1.32418 1.33163 1.33902 1.34635 1.35363 1.36085 1.36802 1.37513 1.38219 1.38919 1.39614 1.40303 1.40988 1.41667 1.42341 1.4301 1.43675 1.44334 1.44989 1.45639 1.46284 1.46924 1.47559 1.48187 1.4881 1.49426 
0.675411 0.684546 0.693694 0.70286 0.712046 0.721257 0.730494 0.739758 0.749049 0.758365 0.767707 0.77707 0.786454 0.795856 0.805273 0.814702 0.824142 0.833589 0.843041 0.852495 0.86195 0.871402 0.88085 0.890291 0.899724 0.909147 0.918558 0.927955 0.937336 0.9467 0.956046 0.965372 0.974677 0.983958 0.993216 1.00245 1.01165 1.02083 1.02998 1.0391 1.04818 1.05724 1.06626 1.07524 1.08419 1.09311 1.10198 1.11082 1.11962 1.12838 1.13709 1.14577 1.1544 1.16299 1.17153 1.18003 1.18848 1.19688 1.20523 1.21354 1.2218 1.23001 1.23816 1.24627 1.25432 1.26232 1.27027 1.27816 1.286 1.29379 1.30152 1.30919 1.31681 1.32437 1.33188 1.33933 1.34673 1.35407 1.36135 1.36857 1.37574 1.38286 1.38992 1.39692 1.40387 1.41076 1.41761 1.4244 1.43113 1.43782 1.44445 1.45104 1.45757 1.46405 1.47048 1.47685 1.48316 1.48941 1.4956 1.50171 
0.682809 0.691992 0.701184 0.710391 0.719615 0.728859 0.738125 0.747413 0.756723 0.766056 0.775409 0.784782 0.794172 0.803578 0.812996 0.822426 0.831865 0.841309 0.850758 0.860208 0.869658 0.879106 0.888548 0.897984 0.907412 0.916829 0.926235 0.935626 0.945002 0.954362 0.963703 0.973024 0.982323 0.9916 1.00085 1.01008 1.01928 1.02846 1.0376 1.04672 1.0558 1.06485 1.07387 1.08285 1.0918 1.10071 1.10959 1.11842 1.12722 1.13598 1.14469 1.15336 1.16199 1.17058 1.17912 1.18762 1.19607 1.20447 1.21283 1.22114 1.22939 1.2376 1.24576 1.25387 1.26192 1.26992 1.27787 1.28577 1.29361 1.3014 1.30913 1.31681 1.32443 1.332 1.33951 1.34696 1.35436 1.3617 1.36898 1.37621 1.38339 1.3905 1.39756 1.40457 1.41152 1.41841 1.42525 1.43204 1.43877 1.44545 1.45207 1.45864 1.46516 1.47162 1.47802 1.48437 1.49065 1.49687 1.50302 1.5091 
0.690136 0.69936 0.708593 0.717836 0.727095 0.736369 0.745662 0.754973 0.764303 0.773651 0.783017 0.792399 0.801797 0.811208 0.82063 0.830061 0.839499 0.848943 0.85839 0.867837 0.877284 0.886728 0.896166 0.905598 0.915021 0.924434 0.933835 0.943222 0.952593 0.961948 0.971284 0.980601 0.989896 0.999169 1.00842 1.01764 1.02684 1.03601 1.04515 1.05426 1.06334 1.07239 1.08141 1.09039 1.09934 1.10824 1.11712 1.12595 1.13475 1.1435 1.15222 1.16089 1.16952 1.1781 1.18665 1.19514 1.20359 1.212 1.22035 1.22866 1.23692 1.24513 1.25329 1.2614 1.26945 1.27746 1.28541 1.2933 1.30115 1.30894 1.31667 1.32435 1.33198 1.33955 1.34706 1.35451 1.36191 1.36926 1.37654 1.38377 1.39095 1.39807 1.40513 1.41213 1.41908 1.42597 1.43281 1.43959 1.44631 1.45298 1.4596 1.46615 1.47266 1.4791 1.48548 1.4918 1.49806 1.50425 1.51037 1.51642 
0.697392 0.706653 0.71592 0.725198 0.734487 0.74379 0.753107 0.76244 0.771789 0.781153 0.790532 0.799925 0.80933 0.818747 0.828173 0.837607 0.847047 0.856491 0.865937 0.875383 0.884827 0.894268 0.903704 0.913132 0.922551 0.93196 0.941357 0.95074 0.960107 0.969458 0.97879 0.988103 0.997395 1.00666 1.01591 1.02513 1.03432 1.04349 1.05263 1.06174 1.07082 1.07986 1.08888 1.09785 1.1068 1.11571 1.12458 1.13341 1.1422 1.15096 1.15967 1.16834 1.17697 1.18556 1.1941 1.2026 1.21105 1.21945 1.22781 1.23611 1.24437 1.25258 1.26074 1.26885 1.27691 1.28491 1.29287 1.30077 1.30861 1.3164 1.32414 1.33182 1.33945 1.34702 1.35453 1.36199 1.36939 1.37674 1.38403 1.39126 1.39843 1.40555 1.41261 1.41961 1.42656 1.43345 1.44028 1.44706 1.45377 1.46043 1.46704 1.47358 1.48007 1.48649 1.49286 1.49916 1.50539 1.51155 1.51765 1.52367 
0.704575 0.713869 0.723169 0.732477 0.741794 0.751123 0.760464 0.769818 0.779184 0.788564 0.797956 0.80736 0.816774 0.826197 0.835628 0.845066 0.854508 0.863953 0.873399 0.882844 0.892288 0.901727 0.91116 0.920585 0.930002 0.939408 0.948801 0.95818 0.967544 0.976891 0.98622 0.99553 1.00482 1.01408 1.02333 1.03254 1.04173 1.0509 1.06003 1.06914 1.07822 1.08726 1.09627 1.10525 1.11419 1.1231 1.13197 1.1408 1.14959 1.15834 1.16705 1.17573 1.18435 1.19294 1.20148 1.20998 1.21843 1.22683 1.23519 1.24349 1.25175 1.25997 1.26813 1.27624 1.28429 1.2923 1.30025 1.30815 1.316 1.32379 1.33153 1.33922 1.34684 1.35442 1.36193 1.36939 1.37679 1.38414 1.39143 1.39866 1.40583 1.41295 1.42001 1.42701 1.43395 1.44084 1.44767 1.45444 1.46115 1.4678 1.47439 1.48093 1.4874 1.49381 1.50015 1.50643 1.51264 1.51878 1.52485 1.53084 
0.711688 0.721012 0.73034 0.739676 0.749019 0.758371 0.767734 0.777107 0.786491 0.795886 0.805291 0.814705 0.824128 0.833559 0.842996 0.852437 0.861882 0.871329 0.880776 0.890222 0.899665 0.909103 0.918534 0.927958 0.937372 0.946775 0.956166 0.965542 0.974904 0.984248 0.993574 1.00288 1.01216 1.02143 1.03067 1.03988 1.04907 1.05823 1.06737 1.07647 1.08554 1.09458 1.10359 1.11257 1.12151 1.13041 1.13928 1.14811 1.1569 1.16565 1.17436 1.18303 1.19166 1.20025 1.20879 1.21728 1.22573 1.23414 1.24249 1.2508 1.25906 1.26727 1.27543 1.28355 1.2916 1.29961 1.30757 1.31547 1.32332 1.33111 1.33885 1.34653 1.35416 1.36174 1.36925 1.37671 1.38412 1.39146 1.39875 1.40598 1.41316 1.42027 1.42733 1.43433 1.44127 1.44815 1.45497 1.46174 1.46844 1.47508 1.48166 1.48818 1.49464 1.50104 1.50736 1.51362 1.51981 1.52593 1.53198 1.53795 
0.718728 0.728079 0.737434 0.746794 0.756161 0.765536 0.774919 0.78431 0.793711 0.80312 0.812537 0.821963 0.831395 0.840833 0.850276 0.859722 0.869171 0.878621 0.888069 0.897516 0.906959 0.916396 0.925827 0.935249 0.944662 0.954063 0.963451 0.972826 0.982184 0.991526 1.00085 1.01015 1.01944 1.0287 1.03793 1.04714 1.05633 1.06549 1.07462 1.08372 1.09279 1.10183 1.11084 1.11981 1.12875 1.13765 1.14652 1.15535 1.16414 1.17289 1.1816 1.19027 1.1989 1.20748 1.21602 1.22452 1.23297 1.24137 1.24973 1.25804 1.2663 1.27451 1.28267 1.29078 1.29884 1.30685 1.3148 1.32271 1.33056 1.33835 1.34609 1.35378 1.36141 1.36898 1.3765 1.38396 1.39136 1.39871 1.406 1.41323 1.4204 1.42751 1.43457 1.44156 1.4485 1.45538 1.4622 1.46895 1.47565 1.48228 1.48885 1.49536 1.50181 1.50818 1.51449 1.52074 1.52691 1.53301 1.53903 1.54498 
0.725697 0.735072 0.744451 0.753834 0.763223 0.772618 0.78202 0.791428 0.800844 0.810268 0.819697 0.829133 0.838575 0.84802 0.85747 0.866921 0.876374 0.885827 0.895278 0.904726 0.914169 0.923607 0.933037 0.942459 0.95187 0.96127 0.970657 0.980029 0.989386 0.998725 1.00805 1.01735 1.02663 1.03589 1.04512 1.05433 1.06351 1.07267 1.0818 1.0909 1.09997 1.10901 1.11801 1.12698 1.13592 1.14482 1.15369 1.16251 1.1713 1.18005 1.18876 1.19743 1.20606 1.21464 1.22318 1.23168 1.24013 1.24853 1.25689 1.2652 1.27346 1.28167 1.28983 1.29794 1.306 1.31401 1.32197 1.32987 1.33772 1.34551 1.35325 1.36094 1.36857 1.37614 1.38366 1.39112 1.39853 1.40587 1.41316 1.42039 1.42756 1.43467 1.44173 1.44872 1.45565 1.46252 1.46933 1.47608 1.48277 1.4894 1.49596 1.50246 1.50889 1.51525 1.52155 1.52777 1.53393 1.54001 1.54602 1.55195 
0.732593 0.74199 0.751391 0.760795 0.770204 0.779618 0.789037 0.798462 0.807893 0.81733 0.826771 0.836218 0.845668 0.855122 0.864578 0.874035 0.883492 0.892948 0.902402 0.911851 0.921296 0.930735 0.940165 0.949587 0.958998 0.968396 0.977782 0.987153 0.996508 1.00585 1.01517 1.02446 1.03374 1.043 1.05223 1.06144 1.07062 1.07978 1.0889 1.098 1.10707 1.1161 1.12511 1.13408 1.14301 1.15191 1.16078 1.1696 1.17839 1.18714 1.19585 1.20452 1.21314 1.22173 1.23027 1.23876 1.24721 1.25561 1.26397 1.27228 1.28054 1.28875 1.29691 1.30503 1.31309 1.32109 1.32905 1.33695 1.3448 1.3526 1.36034 1.36803 1.37566 1.38323 1.39075 1.39821 1.40561 1.41296 1.42025 1.42747 1.43464 1.44175 1.4488 1.45579 1.46272 1.46959 1.47639 1.48313 1.48981 1.49643 1.50298 1.50947 1.51589 1.52224 1.52852 1.53473 1.54087 1.54694 1.55293 1.55884 
0.739416 0.748834 0.758255 0.767678 0.777106 0.786537 0.795973 0.805413 0.814858 0.824307 0.83376 0.843217 0.852676 0.862138 0.8716 0.881063 0.890525 0.899985 0.909441 0.918894 0.92834 0.93778 0.947211 0.956632 0.966043 0.975441 0.984826 0.994196 1.00355 1.01289 1.0222 1.0315 1.04078 1.05003 1.05926 1.06847 1.07765 1.0868 1.09593 1.10502 1.11409 1.12313 1.13213 1.1411 1.15003 1.15893 1.16779 1.17662 1.1854 1.19415 1.20286 1.21153 1.22015 1.22873 1.23727 1.24577 1.25422 1.26262 1.27098 1.27929 1.28755 1.29576 1.30392 1.31203 1.32009 1.3281 1.33606 1.34396 1.35181 1.35961 1.36735 1.37504 1.38267 1.39024 1.39776 1.40522 1.41262 1.41996 1.42725 1.43448 1.44164 1.44875 1.4558 1.46278 1.46971 1.47657 1.48337 1.4901 1.49678 1.50338 1.50993 1.5164 1.52281 1.52915 1.53542 1.54161 1.54774 1.55379 1.55976 1.56566 
0.746166 0.755603 0.765042 0.774483 0.783928 0.793375 0.802826 0.812281 0.821739 0.831201 0.840665 0.850131 0.859599 0.869068 0.878538 0.888006 0.897473 0.906937 0.916397 0.925852 0.9353 0.944741 0.954173 0.963596 0.973006 0.982405 0.991789 1.00116 1.01051 1.01985 1.02916 1.03846 1.04774 1.05699 1.06622 1.07542 1.0846 1.09375 1.10288 1.11197 1.12104 1.13007 1.13907 1.14804 1.15697 1.16587 1.17473 1.18355 1.19234 1.20109 1.20979 1.21846 1.22709 1.23567 1.24421 1.2527 1.26115 1.26955 1.27791 1.28622 1.29448 1.30269 1.31085 1.31896 1.32702 1.33503 1.34299 1.35089 1.35874 1.36654 1.37428 1.38197 1.3896 1.39717 1.40469 1.41215 1.41955 1.42689 1.43417 1.4414 1.44856 1.45567 1.46271 1.46969 1.47661 1.48347 1.49026 1.49699 1.50365 1.51025 1.51679 1.52325 1.52965 1.53598 1.54223 1.54842 1.55453 1.56056 1.56652 1.5724 
0.752842 0.762296 0.771752 0.78121 0.79067 0.800133 0.809599 0.819067 0.828537 0.83801 0.847485 0.856961 0.866437 0.875914 0.88539 0.894864 0.904336 0.913804 0.923268 0.932726 0.942177 0.951619 0.961053 0.970476 0.979887 0.989286 0.99867 1.00804 1.01739 1.02673 1.03604 1.04534 1.05461 1.06386 1.07309 1.0823 1.09147 1.10062 1.10975 1.11884 1.1279 1.13693 1.14593 1.1549 1.16383 1.17273 1.18159 1.19041 1.1992 1.20794 1.21665 1.22532 1.23394 1.24252 1.25106 1.25955 1.268 1.2764 1.28476 1.29307 1.30133 1.30954 1.3177 1.32582 1.33388 1.34189 1.34984 1.35775 1.3656 1.37339 1.38113 1.38882 1.39645 1.40402 1.41153 1.41899 1.42639 1.43373 1.44102 1.44824 1.4554 1.4625 1.46954 1.47652 1.48343 1.49028 1.49707 1.50379 1.51045 1.51704 1.52357 1.53002 1.53641 1.54273 1.54897 1.55514 1.56124 1.56726 1.57321 1.57907 
0.759444 0.768914 0.778385 0.787859 0.797334 0.806811 0.81629 0.825771 0.835253 0.844737 0.854221 0.863706 0.873191 0.882676 0.892158 0.901638 0.911115 0.920588 0.930055 0.939516 0.948969 0.958414 0.967849 0.977274 0.986686 0.996085 1.00547 1.01484 1.02419 1.03352 1.04284 1.05213 1.06141 1.07066 1.07989 1.08909 1.09826 1.10741 1.11654 1.12563 1.13469 1.14372 1.15272 1.16168 1.17062 1.17951 1.18837 1.19719 1.20598 1.21472 1.22343 1.23209 1.24072 1.2493 1.25784 1.26633 1.27478 1.28318 1.29154 1.29984 1.3081 1.31632 1.32448 1.33259 1.34065 1.34866 1.35661 1.36452 1.37237 1.38016 1.3879 1.39559 1.40322 1.41079 1.4183 1.42576 1.43316 1.4405 1.44778 1.455 1.46216 1.46925 1.47629 1.48326 1.49017 1.49702 1.5038 1.51052 1.51717 1.52375 1.53027 1.53671 1.54309 1.5494 1.55563 1.56179 1.56788 1.57389 1.57982 1.58567 
0.765971 0.775456 0.784942 0.794429 0.803918 0.813408 0.8229 0.832392 0.841886 0.85138 0.860874 0.870368 0.879861 0.889353 0.898842 0.908328 0.91781 0.927287 0.936758 0.946222 0.955678 0.965125 0.974562 0.983988 0.993401 1.0028 1.01219 1.02156 1.03091 1.04024 1.04956 1.05885 1.06812 1.07737 1.0866 1.0958 1.10498 1.11413 1.12325 1.13234 1.1414 1.15043 1.15943 1.16839 1.17732 1.18621 1.19507 1.2039 1.21268 1.22142 1.23013 1.23879 1.24742 1.256 1.26453 1.27303 1.28147 1.28988 1.29823 1.30654 1.3148 1.32301 1.33117 1.33928 1.34734 1.35535 1.36331 1.37121 1.37906 1.38685 1.39459 1.40228 1.40991 1.41748 1.42499 1.43245 1.43984 1.44718 1.45446 1.46167 1.46883 1.47592 1.48296 1.48993 1.49683 1.50367 1.51045 1.51716 1.5238 1.53038 1.53689 1.54332 1.54969 1.55599 1.56221 1.56836 1.57444 1.58044 1.58636 1.5922 
0.772423 0.781921 0.791421 0.800921 0.810423 0.819926 0.829429 0.838933 0.848437 0.857941 0.867444 0.876946 0.886447 0.895946 0.905441 0.914933 0.92442 0.933901 0.943376 0.952844 0.962303 0.971752 0.981191 0.990619 1.00003 1.00943 1.01882 1.02819 1.03754 1.04688 1.05619 1.06548 1.07476 1.08401 1.09323 1.10243 1.11161 1.12076 1.12987 1.13897 1.14803 1.15705 1.16605 1.17501 1.18394 1.19284 1.2017 1.21052 1.2193 1.22805 1.23675 1.24541 1.25404 1.26262 1.27115 1.27964 1.28809 1.29649 1.30485 1.31316 1.32142 1.32963 1.33779 1.3459 1.35396 1.36197 1.36992 1.37782 1.38567 1.39347 1.4012 1.40889 1.41651 1.42408 1.4316 1.43905 1.44644 1.45378 1.46105 1.46827 1.47542 1.48251 1.48954 1.49651 1.50341 1.51024 1.51701 1.52372 1.53036 1.53692 1.54342 1.54985 1.55621 1.5625 1.56872 1.57486 1.58092 1.58691 1.59282 1.59865 
0.778799 0.78831 0.797822 0.807335 0.816848 0.826362 0.835877 0.845391 0.854905 0.864418 0.87393 0.883441 0.892949 0.902454 0.911956 0.921453 0.930945 0.940431 0.94991 0.959381 0.968843 0.978295 0.987736 0.997166 1.00658 1.01598 1.02537 1.03474 1.04409 1.05343 1.06274 1.07204 1.08131 1.09056 1.09978 1.10898 1.11816 1.1273 1.13642 1.14551 1.15457 1.1636 1.1726 1.18156 1.19049 1.19938 1.20824 1.21706 1.22584 1.23459 1.24329 1.25195 1.26057 1.26915 1.27769 1.28618 1.29463 1.30303 1.31138 1.31969 1.32795 1.33616 1.34432 1.35243 1.36049 1.3685 1.37645 1.38436 1.3922 1.4 1.40773 1.41542 1.42304 1.43061 1.43812 1.44557 1.45297 1.4603 1.46757 1.47478 1.48193 1.48902 1.49604 1.50301 1.5099 1.51673 1.5235 1.5302 1.53683 1.54339 1.54988 1.5563 1.56266 1.56893 1.57514 1.58127 1.58732 1.5933 1.5992 1.60502 
0.785099 0.794622 0.804145 0.81367 0.823194 0.832719 0.842244 0.851768 0.861291 0.870813 0.880334 0.889852 0.899367 0.908879 0.918387 0.927889 0.937386 0.946877 0.95636 0.965834 0.975299 0.984754 0.994197 1.00363 1.01305 1.02245 1.03184 1.04121 1.05056 1.0599 1.06921 1.0785 1.08778 1.09703 1.10625 1.11545 1.12462 1.13377 1.14289 1.15198 1.16104 1.17007 1.17906 1.18802 1.19695 1.20584 1.2147 1.22352 1.2323 1.24105 1.24975 1.25841 1.26703 1.27561 1.28415 1.29264 1.30108 1.30949 1.31784 1.32615 1.33441 1.34261 1.35078 1.35888 1.36694 1.37495 1.3829 1.39081 1.39865 1.40644 1.41418 1.42186 1.42949 1.43705 1.44456 1.45201 1.4594 1.46673 1.474 1.48121 1.48836 1.49544 1.50247 1.50942 1.51631 1.52314 1.5299 1.53659 1.54322 1.54977 1.55626 1.56267 1.56902 1.57529 1.58148 1.5876 1.59365 1.59962 1.60551 1.61132 
0.791322 0.800856 0.81039 0.819925 0.82946 0.838995 0.848529 0.858062 0.867595 0.877125 0.886654 0.896179 0.905701 0.91522 0.924733 0.934241 0.943743 0.953238 0.962724 0.972202 0.981671 0.991128 1.00057 1.01001 1.01943 1.02883 1.03822 1.04759 1.05695 1.06628 1.0756 1.08489 1.09416 1.10341 1.11264 1.12184 1.13101 1.14016 1.14927 1.15836 1.16742 1.17645 1.18544 1.1944 1.20333 1.21222 1.22108 1.2299 1.23868 1.24742 1.25613 1.26479 1.27341 1.28199 1.29052 1.29901 1.30746 1.31586 1.32421 1.33252 1.34078 1.34899 1.35715 1.36526 1.37331 1.38132 1.38927 1.39717 1.40502 1.41281 1.42055 1.42823 1.43585 1.44342 1.45092 1.45837 1.46576 1.47309 1.48036 1.48756 1.49471 1.50179 1.5088 1.51576 1.52264 1.52946 1.53622 1.54291 1.54952 1.55607 1.56255 1.56896 1.5753 1.58156 1.58775 1.59386 1.5999 1.60586 1.61174 1.61754 
0.797467 0.807011 0.816556 0.826101 0.835645 0.84519 0.854733 0.864275 0.873816 0.883354 0.89289 0.902423 0.911951 0.921476 0.930995 0.940508 0.950015 0.959514 0.969004 0.978486 0.987957 0.997417 1.00687 1.0163 1.02572 1.03513 1.04452 1.05389 1.06325 1.07258 1.0819 1.09119 1.10046 1.10971 1.11894 1.12814 1.13731 1.14646 1.15558 1.16466 1.17372 1.18275 1.19174 1.2007 1.20963 1.21852 1.22738 1.2362 1.24498 1.25372 1.26242 1.27108 1.2797 1.28828 1.29682 1.30531 1.31375 1.32215 1.33051 1.33881 1.34707 1.35528 1.36344 1.37155 1.3796 1.38761 1.39556 1.40346 1.41131 1.4191 1.42683 1.43451 1.44213 1.44969 1.4572 1.46465 1.47203 1.47936 1.48662 1.49383 1.50097 1.50804 1.51506 1.52201 1.52889 1.53571 1.54246 1.54914 1.55575 1.56229 1.56877 1.57517 1.5815 1.58775 1.59393 1.60004 1.60607 1.61202 1.61789 1.62368 
0.803535 0.813089 0.822643 0.832197 0.84175 0.851303 0.860855 0.870406 0.879954 0.8895 0.899043 0.908582 0.918117 0.927647 0.937172 0.94669 0.956201 0.965705 0.975199 0.984684 0.994159 1.00362 1.01307 1.02251 1.03193 1.04134 1.05073 1.06011 1.06946 1.0788 1.08811 1.09741 1.10668 1.11593 1.12516 1.13436 1.14353 1.15268 1.16179 1.17088 1.17994 1.18897 1.19796 1.20692 1.21585 1.22474 1.23359 1.24241 1.25119 1.25993 1.26864 1.2773 1.28592 1.29449 1.30303 1.31152 1.31996 1.32836 1.33671 1.34502 1.35328 1.36149 1.36964 1.37775 1.38581 1.39381 1.40176 1.40966 1.41751 1.4253 1.43303 1.44071 1.44833 1.45589 1.46339 1.47084 1.47822 1.48554 1.49281 1.50001 1.50715 1.51422 1.52123 1.52817 1.53505 1.54186 1.54861 1.55529 1.56189 1.56843 1.5749 1.58129 1.58761 1.59386 1.60004 1.60613 1.61216 1.6181 1.62396 1.62975 
0.809524 0.819087 0.828649 0.838212 0.847774 0.857336 0.866896 0.876454 0.88601 0.895563 0.905112 0.914658 0.924199 0.933735 0.943264 0.952788 0.962303 0.971811 0.981309 0.990797 1.00027 1.00974 1.01919 1.02863 1.03806 1.04747 1.05686 1.06624 1.07559 1.08493 1.09425 1.10354 1.11282 1.12207 1.13129 1.14049 1.14966 1.15881 1.16793 1.17702 1.18607 1.1951 1.20409 1.21305 1.22198 1.23087 1.23973 1.24854 1.25732 1.26606 1.27477 1.28343 1.29205 1.30062 1.30916 1.31765 1.32609 1.33449 1.34284 1.35115 1.3594 1.36761 1.37577 1.38387 1.39193 1.39993 1.40789 1.41578 1.42363 1.43141 1.43915 1.44682 1.45444 1.462 1.4695 1.47694 1.48433 1.49165 1.49891 1.50611 1.51324 1.52031 1.52732 1.53426 1.54113 1.54794 1.55468 1.56135 1.56795 1.57449 1.58095 1.58734 1.59365 1.59989 1.60606 1.61215 1.61817 1.6241 1.62996 1.63574 
0.815434 0.825005 0.834576 0.844147 0.853717 0.863286 0.872854 0.882419 0.891982 0.901542 0.911098 0.920649 0.930196 0.939737 0.949272 0.9588 0.96832 0.977831 0.987333 0.996825 1.00631 1.01577 1.02523 1.03467 1.0441 1.05351 1.0629 1.07228 1.08164 1.09098 1.10029 1.10959 1.11886 1.12811 1.13734 1.14654 1.15571 1.16486 1.17398 1.18306 1.19212 1.20115 1.21014 1.2191 1.22803 1.23692 1.24577 1.25459 1.26337 1.27211 1.28081 1.28947 1.29809 1.30667 1.3152 1.32369 1.33213 1.34053 1.34888 1.35719 1.36544 1.37365 1.38181 1.38991 1.39797 1.40597 1.41392 1.42182 1.42966 1.43745 1.44518 1.45285 1.46047 1.46803 1.47553 1.48297 1.49035 1.49767 1.50492 1.51212 1.51925 1.52632 1.53332 1.54026 1.54713 1.55393 1.56067 1.56734 1.57393 1.58046 1.58691 1.5933 1.59961 1.60584 1.612 1.61809 1.6241 1.63002 1.63588 1.64165 