# vtk DataFile Version 3.0
cell
ASCII
DATASET STRUCTURED_POINTS
DIMENSIONS 100 100 1
ORIGIN 0 0 0
SPACING 0.010000 0.010000 1
POINT_DATA 10000
SCALARS sample_scalars double
LOOKUP_TABLE default
0.55758 0.563806 0.571937 0.580832 0.590081 0.599512 0.609049 0.618648 0.628288 0.637952 0.647632 0.65732 0.667012 0.676704 0.686393 0.696077 0.705753 0.715419 0.725075 0.734717 0.744346 0.753959 0.763556 0.773135 0.782695 0.792235 0.801754 0.811251 0.820725 0.830175 0.8396 0.848999 0.858371 0.867715 0.877031 0.886316 0.895571 0.904794 0.913984 0.923141 0.932264 0.941351 0.950403 0.959417 0.968393 0.977331 0.986229 0.995086 1.0039 1.01268 1.02141 1.03009 1.03874 1.04733 1.05588 1.06438 1.07284 1.08124 1.0896 1.09791 1.10616 1.11436 1.12251 1.13061 1.13865 1.14663 1.15456 1.16243 1.17025 1.17801 1.1857 1.19334 1.20092 1.20844 1.21589 1.22328 1.23061 1.23788 1.24508 1.25222 1.25929 1.26629 1.27323 1.28011 1.28691 1.29365 1.30033 1.30693 1.31347 1.31995 1.32637 1.33273 1.33904 1.34531 1.35155 1.35779 1.3641 1.37059 1.37758 1.38593 
0.569298 0.575448 0.582951 0.591254 0.600024 0.609075 0.618302 0.627643 0.637062 0.646533 0.656041 0.665575 0.675125 0.684687 0.694254 0.703823 0.713391 0.722956 0.732514 0.742065 0.751606 0.761135 0.770651 0.780153 0.789639 0.799109 0.80856 0.817993 0.827405 0.836795 0.846164 0.855509 0.86483 0.874125 0.883394 0.892636 0.90185 0.911035 0.92019 0.929314 0.938406 0.947465 0.956491 0.965482 0.974438 0.983358 0.992241 1.00109 1.00989 1.01866 1.02738 1.03607 1.04471 1.05331 1.06187 1.07038 1.07884 1.08726 1.09564 1.10396 1.11224 1.12046 1.12864 1.13676 1.14484 1.15286 1.16083 1.16874 1.1766 1.1844 1.19215 1.19984 1.20748 1.21505 1.22257 1.23003 1.23742 1.24476 1.25204 1.25925 1.2664 1.2735 1.28052 1.28749 1.2944 1.30124 1.30803 1.31476 1.32143 1.32804 1.33461 1.34114 1.34764 1.35412 1.36062 1.36717 1.37387 1.38083 1.38832 1.39675 
0.579055 0.585681 0.593108 0.601152 0.609629 0.618403 0.627381 0.636501 0.645722 0.655017 0.664364 0.67375 0.683165 0.692599 0.702048 0.711505 0.720968 0.730432 0.739895 0.749354 0.758808 0.768254 0.77769 0.787116 0.796529 0.805928 0.815312 0.82468 0.834031 0.843362 0.852675 0.861966 0.871236 0.880483 0.889706 0.898905 0.908078 0.917225 0.926344 0.935435 0.944496 0.953528 0.962528 0.971497 0.980432 0.989334 0.998202 1.00703 1.01583 1.02459 1.03331 1.04199 1.05064 1.05924 1.0678 1.07632 1.0848 1.09323 1.10162 1.10996 1.11826 1.12651 1.13472 1.14287 1.15098 1.15904 1.16704 1.175 1.1829 1.19075 1.19855 1.20629 1.21398 1.22161 1.22919 1.23671 1.24418 1.25159 1.25894 1.26623 1.27346 1.28064 1.28776 1.29482 1.30182 1.30877 1.31567 1.32251 1.3293 1.33605 1.34277 1.34945 1.35612 1.36279 1.3695 1.37629 1.38323 1.39041 1.39798 1.40608 
0.587991 0.595057 0.602591 0.61056 0.61888 0.627469 0.636259 0.645199 0.654251 0.663387 0.672587 0.681836 0.691122 0.700436 0.70977 0.719119 0.728479 0.737845 0.747214 0.756584 0.765952 0.775315 0.784673 0.794023 0.803363 0.812693 0.82201 0.831314 0.840604 0.849877 0.859133 0.868371 0.87759 0.886789 0.895967 0.905123 0.914255 0.923364 0.932448 0.941506 0.950537 0.95954 0.968515 0.977461 0.986377 0.995261 1.00411 1.01293 1.02172 1.03047 1.03919 1.04787 1.05651 1.06512 1.07369 1.08221 1.0907 1.09915 1.10755 1.11592 1.12424 1.13251 1.14074 1.14893 1.15707 1.16516 1.17321 1.1812 1.18915 1.19705 1.20489 1.21269 1.22043 1.22812 1.23576 1.24335 1.25088 1.25836 1.26578 1.27315 1.28047 1.28773 1.29493 1.30208 1.30919 1.31623 1.32324 1.33019 1.3371 1.34398 1.35082 1.35765 1.36447 1.3713 1.37818 1.38513 1.39221 1.39947 1.40699 1.41478 
0.596514 0.603907 0.611584 0.619559 0.627804 0.636275 0.644928 0.653725 0.662636 0.671634 0.680702 0.689825 0.698991 0.70819 0.717415 0.726661 0.735921 0.745191 0.75447 0.763752 0.773035 0.782318 0.791598 0.800874 0.810142 0.819403 0.828655 0.837895 0.847124 0.856339 0.86554 0.874725 0.883894 0.893045 0.902178 0.911291 0.920383 0.929454 0.938503 0.947528 0.956529 0.965505 0.974455 0.983378 0.992273 1.00114 1.00998 1.01879 1.02756 1.03631 1.04502 1.0537 1.06234 1.07095 1.07952 1.08806 1.09656 1.10502 1.11344 1.12182 1.13016 1.13846 1.14672 1.15494 1.16311 1.17124 1.17932 1.18736 1.19535 1.20329 1.21119 1.21903 1.22683 1.23458 1.24228 1.24993 1.25753 1.26507 1.27257 1.28002 1.28741 1.29475 1.30204 1.30929 1.31648 1.32363 1.33073 1.33779 1.34481 1.35181 1.35877 1.36573 1.37268 1.37964 1.38664 1.39371 1.40087 1.40815 1.41559 1.42315 
0.604793 0.612417 0.620221 0.628231 0.636445 0.644842 0.653396 0.662081 0.670873 0.679753 0.688704 0.697712 0.706767 0.715859 0.724981 0.734127 0.743291 0.75247 0.761659 0.770856 0.780058 0.789262 0.798465 0.807667 0.816866 0.826059 0.835245 0.844423 0.853592 0.86275 0.871896 0.881029 0.890148 0.899252 0.908339 0.91741 0.926462 0.935496 0.94451 0.953502 0.962473 0.971422 0.980347 0.989248 0.998123 1.00697 1.0158 1.02459 1.03336 1.04209 1.0508 1.05948 1.06812 1.07674 1.08531 1.09386 1.10237 1.11084 1.11928 1.12768 1.13605 1.14437 1.15265 1.1609 1.1691 1.17727 1.18539 1.19346 1.2015 1.20949 1.21743 1.22533 1.23318 1.24099 1.24875 1.25646 1.26412 1.27174 1.2793 1.28682 1.29429 1.30172 1.30909 1.31642 1.32371 1.33095 1.33815 1.34531 1.35244 1.35954 1.36661 1.37368 1.38074 1.38781 1.39491 1.40206 1.40927 1.41655 1.42391 1.43133 
0.612905 0.620689 0.628593 0.636643 0.644846 0.653194 0.661675 0.670271 0.678965 0.687743 0.69659 0.705494 0.714447 0.723439 0.732464 0.741515 0.750588 0.759678 0.768782 0.777896 0.787018 0.796144 0.805274 0.814404 0.823533 0.832659 0.841782 0.850898 0.860008 0.869109 0.878201 0.887282 0.896352 0.905409 0.914453 0.923481 0.932494 0.941491 0.95047 0.959431 0.968372 0.977293 0.986193 0.995072 1.00393 1.01276 1.02157 1.03035 1.03911 1.04784 1.05654 1.06522 1.07386 1.08248 1.09106 1.09961 1.10813 1.11662 1.12508 1.1335 1.14188 1.15023 1.15854 1.16681 1.17505 1.18325 1.1914 1.19952 1.2076 1.21563 1.22362 1.23157 1.23948 1.24734 1.25516 1.26293 1.27066 1.27834 1.28598 1.29357 1.30112 1.30862 1.31608 1.32349 1.33086 1.33819 1.34549 1.35274 1.35997 1.36717 1.37435 1.38151 1.38867 1.39583 1.40301 1.41021 1.41745 1.42473 1.43205 1.43937 
0.620889 0.628783 0.63676 0.644843 0.653042 0.661357 0.669782 0.678305 0.686917 0.695606 0.704361 0.713172 0.72203 0.73093 0.739863 0.748825 0.757811 0.766816 0.775837 0.784871 0.793915 0.802966 0.812023 0.821083 0.830144 0.839205 0.848265 0.857321 0.866372 0.875418 0.884456 0.893487 0.902508 0.911519 0.920518 0.929506 0.93848 0.94744 0.956385 0.965313 0.974226 0.98312 0.991996 1.00085 1.00969 1.0185 1.0273 1.03607 1.04482 1.05354 1.06224 1.07091 1.07956 1.08817 1.09676 1.10533 1.11386 1.12236 1.13083 1.13927 1.14767 1.15604 1.16438 1.17269 1.18095 1.18918 1.19738 1.20553 1.21365 1.22173 1.22977 1.23777 1.24573 1.25365 1.26152 1.26936 1.27715 1.28489 1.2926 1.30026 1.30788 1.31546 1.323 1.33049 1.33795 1.34536 1.35275 1.36009 1.36741 1.3747 1.38197 1.38922 1.39647 1.40371 1.41095 1.4182 1.42547 1.43275 1.44003 1.4473 
0.628769 0.636736 0.644764 0.65287 0.661065 0.669353 0.677731 0.686195 0.694736 0.703347 0.712019 0.720745 0.729517 0.73833 0.747178 0.756055 0.764958 0.773882 0.782824 0.79178 0.800749 0.809727 0.818713 0.827705 0.8367 0.845697 0.854695 0.863691 0.872686 0.881676 0.890663 0.899643 0.908616 0.917581 0.926538 0.935484 0.94442 0.953344 0.962255 0.971152 0.980035 0.988903 0.997755 1.00659 1.01541 1.02421 1.03298 1.04174 1.05048 1.0592 1.06789 1.07656 1.08521 1.09383 1.10243 1.11099 1.11954 1.12805 1.13654 1.14499 1.15342 1.16182 1.17018 1.17851 1.18681 1.19508 1.20331 1.2115 1.21966 1.22778 1.23587 1.24392 1.25193 1.2599 1.26783 1.27573 1.28358 1.29139 1.29916 1.3069 1.31459 1.32224 1.32985 1.33743 1.34496 1.35246 1.35993 1.36736 1.37476 1.38214 1.38949 1.39682 1.40414 1.41145 1.41875 1.42605 1.43334 1.44063 1.4479 1.45513 
0.636556 0.644571 0.65263 0.660749 0.668938 0.677201 0.685539 0.69395 0.702429 0.71097 0.719568 0.728216 0.736909 0.745642 0.754409 0.763206 0.77203 0.780876 0.789741 0.798624 0.80752 0.816427 0.825344 0.834269 0.8432 0.852134 0.861071 0.87001 0.878948 0.887885 0.89682 0.905751 0.914677 0.923598 0.932512 0.941418 0.950316 0.959204 0.968082 0.976948 0.985803 0.994645 1.00347 1.01229 1.02108 1.02987 1.03863 1.04738 1.05611 1.06482 1.07351 1.08217 1.09082 1.09945 1.10805 1.11662 1.12518 1.1337 1.14221 1.15068 1.15913 1.16755 1.17594 1.1843 1.19263 1.20092 1.20919 1.21742 1.22562 1.23379 1.24192 1.25002 1.25808 1.26611 1.27409 1.28204 1.28996 1.29783 1.30567 1.31347 1.32123 1.32896 1.33664 1.34429 1.35191 1.35948 1.36703 1.37454 1.38202 1.38948 1.39691 1.40432 1.4117 1.41907 1.42643 1.43377 1.44109 1.44839 1.45566 1.46288 
0.644259 0.652301 0.660377 0.6685 0.676678 0.684917 0.693218 0.701581 0.710003 0.718482 0.727011 0.735588 0.744207 0.752865 0.761556 0.770278 0.779026 0.787798 0.796591 0.805401 0.814227 0.823066 0.831916 0.840776 0.849644 0.858517 0.867396 0.876277 0.885161 0.894045 0.90293 0.911812 0.920692 0.929569 0.938441 0.947308 0.956168 0.965021 0.973867 0.982703 0.991529 1.00035 1.00915 1.01794 1.02672 1.03549 1.04424 1.05297 1.06169 1.0704 1.07908 1.08775 1.09639 1.10502 1.11363 1.12221 1.13078 1.13932 1.14784 1.15633 1.1648 1.17324 1.18165 1.19004 1.1984 1.20673 1.21503 1.2233 1.23154 1.23975 1.24793 1.25607 1.26418 1.27226 1.2803 1.28831 1.29629 1.30422 1.31212 1.31999 1.32782 1.33561 1.34337 1.35109 1.35878 1.36643 1.37405 1.38164 1.3892 1.39673 1.40423 1.41171 1.41916 1.42659 1.43399 1.44137 1.44873 1.45605 1.46332 1.47055 
0.651883 0.659937 0.668019 0.676137 0.684301 0.692514 0.700779 0.709097 0.717467 0.725887 0.734354 0.742864 0.751414 0.760001 0.768621 0.777271 0.785948 0.794649 0.803371 0.812113 0.820871 0.829644 0.83843 0.847227 0.856033 0.864847 0.873668 0.882494 0.891324 0.900157 0.908992 0.917827 0.926662 0.935495 0.944327 0.953155 0.961978 0.970797 0.97961 0.988417 0.997215 1.00601 1.01479 1.02356 1.03232 1.04107 1.04981 1.05853 1.06724 1.07594 1.08462 1.09328 1.10193 1.11056 1.11917 1.12777 1.13634 1.14489 1.15343 1.16194 1.17042 1.17889 1.18733 1.19574 1.20413 1.21249 1.22083 1.22914 1.23742 1.24567 1.25389 1.26208 1.27024 1.27837 1.28647 1.29453 1.30256 1.31056 1.31852 1.32645 1.33434 1.3422 1.35003 1.35782 1.36558 1.37331 1.381 1.38866 1.39629 1.40389 1.41146 1.419 1.42652 1.434 1.44146 1.44888 1.45627 1.46361 1.47091 1.47815 
0.659431 0.667486 0.675564 0.683671 0.691815 0.700001 0.708231 0.716506 0.724827 0.733192 0.741599 0.750047 0.758533 0.767053 0.775606 0.784188 0.792796 0.801429 0.810085 0.81876 0.827453 0.836162 0.844885 0.853621 0.862367 0.871124 0.879889 0.888661 0.897439 0.906221 0.915008 0.923797 0.932587 0.941378 0.950169 0.958959 0.967747 0.976532 0.985314 0.994091 1.00286 1.01163 1.02039 1.02914 1.03788 1.04661 1.05534 1.06405 1.07275 1.08144 1.09012 1.09878 1.10743 1.11606 1.12468 1.13328 1.14187 1.15043 1.15898 1.16751 1.17601 1.1845 1.19296 1.20141 1.20982 1.21822 1.22659 1.23493 1.24325 1.25155 1.25981 1.26805 1.27625 1.28443 1.29258 1.3007 1.30878 1.31684 1.32486 1.33285 1.34081 1.34874 1.35663 1.36449 1.37232 1.38011 1.38787 1.3956 1.4033 1.41097 1.4186 1.42621 1.43378 1.44132 1.44882 1.45629 1.46371 1.47109 1.47841 1.48567 
0.666905 0.674953 0.683019 0.69111 0.699231 0.707387 0.715581 0.723814 0.732088 0.740401 0.748753 0.757142 0.765566 0.774023 0.782511 0.791028 0.799572 0.80814 0.816731 0.825342 0.833972 0.842619 0.851282 0.859959 0.868648 0.877348 0.886059 0.894778 0.903505 0.912239 0.920978 0.929721 0.938469 0.947218 0.95597 0.964723 0.973476 0.982228 0.990978 0.999726 1.00847 1.01721 1.02595 1.03468 1.04341 1.05212 1.06083 1.06954 1.07823 1.08691 1.09558 1.10425 1.1129 1.12153 1.13015 1.13876 1.14736 1.15594 1.1645 1.17304 1.18157 1.19008 1.19856 1.20703 1.21548 1.22391 1.23231 1.24069 1.24905 1.25738 1.26568 1.27397 1.28222 1.29045 1.29865 1.30682 1.31496 1.32307 1.33115 1.3392 1.34722 1.35521 1.36317 1.37109 1.37899 1.38685 1.39468 1.40247 1.41023 1.41796 1.42566 1.43333 1.44095 1.44854 1.4561 1.46361 1.47107 1.47848 1.48583 1.49312 
0.674308 0.682341 0.690389 0.698458 0.706553 0.714678 0.722835 0.731027 0.739255 0.747518 0.755817 0.76415 0.772516 0.780913 0.78934 0.797795 0.806276 0.814782 0.823311 0.831861 0.840431 0.849018 0.857622 0.866242 0.874875 0.883521 0.892179 0.900847 0.909524 0.91821 0.926903 0.935602 0.944307 0.953017 0.96173 0.970446 0.979165 0.987884 0.996605 1.00532 1.01404 1.02276 1.03148 1.04019 1.04889 1.0576 1.0663 1.07499 1.08367 1.09235 1.10102 1.10968 1.11833 1.12697 1.13559 1.14421 1.15281 1.1614 1.16998 1.17854 1.18709 1.19562 1.20413 1.21262 1.2211 1.22955 1.23799 1.2464 1.2548 1.26317 1.27152 1.27984 1.28814 1.29642 1.30466 1.31289 1.32108 1.32925 1.33739 1.3455 1.35358 1.36162 1.36964 1.37763 1.38559 1.39351 1.40141 1.40926 1.41709 1.42488 1.43264 1.44036 1.44804 1.45569 1.46329 1.47084 1.47835 1.4858 1.49319 1.50051 
0.681639 0.689653 0.697679 0.705722 0.713788 0.72188 0.73 0.738151 0.746334 0.754549 0.762796 0.771075 0.779385 0.787725 0.796093 0.804489 0.812911 0.821357 0.829827 0.838317 0.846829 0.855359 0.863906 0.87247 0.881049 0.889643 0.898249 0.906867 0.915496 0.924135 0.932783 0.94144 0.950104 0.958774 0.96745 0.976131 0.984815 0.993504 1.00219 1.01089 1.01958 1.02827 1.03697 1.04566 1.05435 1.06304 1.07172 1.0804 1.08908 1.09775 1.10642 1.11507 1.12372 1.13237 1.141 1.14962 1.15824 1.16684 1.17543 1.18401 1.19257 1.20112 1.20966 1.21817 1.22668 1.23516 1.24363 1.25208 1.26051 1.26892 1.27731 1.28568 1.29402 1.30234 1.31064 1.31891 1.32716 1.33538 1.34357 1.35173 1.35987 1.36798 1.37606 1.38411 1.39213 1.40011 1.40807 1.41599 1.42387 1.43172 1.43954 1.44732 1.45505 1.46275 1.4704 1.478 1.48555 1.49304 1.50046 1.50782 
0.6889 0.696889 0.704889 0.712904 0.720939 0.728996 0.737079 0.745189 0.753327 0.761495 0.769692 0.77792 0.786176 0.794461 0.802773 0.811113 0.819477 0.827866 0.836278 0.844712 0.853167 0.861641 0.870134 0.878645 0.887172 0.895714 0.90427 0.91284 0.921422 0.930016 0.938621 0.947235 0.955859 0.964491 0.97313 0.981776 0.990428 0.999086 1.00775 1.01641 1.02508 1.03375 1.04243 1.0511 1.05977 1.06845 1.07712 1.08579 1.09446 1.10312 1.11178 1.12044 1.12909 1.13774 1.14637 1.15501 1.16363 1.17224 1.18085 1.18944 1.19802 1.20659 1.21515 1.22369 1.23222 1.24074 1.24924 1.25772 1.26618 1.27463 1.28306 1.29147 1.29985 1.30822 1.31656 1.32488 1.33318 1.34145 1.3497 1.35792 1.36611 1.37428 1.38242 1.39052 1.3986 1.40665 1.41466 1.42264 1.43058 1.43849 1.44636 1.4542 1.46199 1.46973 1.47743 1.48508 1.49267 1.5002 1.50767 1.51507 
0.696091 0.704052 0.712023 0.720008 0.728009 0.736031 0.744075 0.752144 0.760239 0.76836 0.77651 0.784687 0.792892 0.801123 0.809382 0.817666 0.825976 0.83431 0.842667 0.851046 0.859447 0.867868 0.876308 0.884766 0.893242 0.901735 0.910243 0.918766 0.927303 0.935853 0.944415 0.952989 0.961574 0.970168 0.978772 0.987385 0.996005 1.00463 1.01327 1.02191 1.03055 1.0392 1.04785 1.05651 1.06516 1.07382 1.08248 1.09114 1.0998 1.10846 1.11712 1.12578 1.13443 1.14308 1.15172 1.16036 1.16899 1.17761 1.18623 1.19484 1.20344 1.21203 1.22061 1.22918 1.23773 1.24628 1.25481 1.26332 1.27182 1.2803 1.28877 1.29722 1.30565 1.31406 1.32245 1.33081 1.33916 1.34748 1.35578 1.36405 1.3723 1.38052 1.38872 1.39688 1.40501 1.41312 1.42119 1.42922 1.43722 1.44519 1.45312 1.461 1.46884 1.47664 1.48439 1.49208 1.49972 1.50729 1.5148 1.52224 
0.703211 0.711142 0.719082 0.727034 0.735001 0.742986 0.750991 0.759019 0.767071 0.775148 0.78325 0.791379 0.799533 0.807714 0.815921 0.824153 0.832409 0.84069 0.848994 0.857321 0.865669 0.874038 0.882427 0.890836 0.899263 0.907708 0.916169 0.924647 0.93314 0.941647 0.950168 0.958702 0.967249 0.975807 0.984377 0.992956 1.00155 1.01014 1.01875 1.02736 1.03598 1.04461 1.05324 1.06188 1.07052 1.07917 1.08782 1.09647 1.10512 1.11378 1.12243 1.13108 1.13973 1.14839 1.15703 1.16568 1.17432 1.18295 1.19158 1.20021 1.20883 1.21744 1.22604 1.23463 1.24321 1.25178 1.26034 1.26889 1.27742 1.28594 1.29444 1.30293 1.3114 1.31985 1.32829 1.3367 1.34509 1.35346 1.36181 1.37014 1.37844 1.38671 1.39496 1.40318 1.41136 1.41952 1.42765 1.43574 1.4438 1.45182 1.4598 1.46773 1.47563 1.48347 1.49127 1.49901 1.50669 1.51431 1.52187 1.52935 
0.710261 0.71816 0.726067 0.733985 0.741916 0.749864 0.757831 0.765818 0.773827 0.781859 0.789916 0.797997 0.806103 0.814235 0.822391 0.830572 0.838778 0.847008 0.855261 0.863536 0.871834 0.880154 0.888494 0.896854 0.905234 0.913632 0.922048 0.930482 0.938932 0.947398 0.95588 0.964376 0.972885 0.981409 0.989944 0.998492 1.00705 1.01562 1.0242 1.03279 1.04139 1.04999 1.05861 1.06723 1.07585 1.08449 1.09312 1.10177 1.11041 1.11906 1.12771 1.13636 1.14501 1.15367 1.16232 1.17097 1.17962 1.18827 1.19691 1.20555 1.21418 1.22281 1.23143 1.24005 1.24866 1.25725 1.26584 1.27442 1.28298 1.29154 1.30008 1.3086 1.31711 1.3256 1.33408 1.34254 1.35098 1.3594 1.36779 1.37617 1.38452 1.39284 1.40114 1.40941 1.41766 1.42587 1.43405 1.44219 1.4503 1.45838 1.46641 1.4744 1.48234 1.49024 1.49808 1.50587 1.5136 1.52126 1.52886 1.53639 
0.717241 0.725107 0.732979 0.740862 0.748757 0.756667 0.764594 0.772541 0.780508 0.788497 0.796509 0.804544 0.812603 0.820687 0.828795 0.836927 0.845084 0.853264 0.861468 0.869695 0.877944 0.886215 0.894508 0.902822 0.911155 0.919509 0.927882 0.936273 0.944682 0.953108 0.961551 0.97001 0.978484 0.986973 0.995476 1.00399 1.01252 1.02106 1.02962 1.03818 1.04676 1.05535 1.06394 1.07254 1.08116 1.08977 1.0984 1.10703 1.11567 1.12431 1.13296 1.14161 1.15026 1.15892 1.16758 1.17624 1.18489 1.19355 1.20221 1.21086 1.21951 1.22816 1.2368 1.24544 1.25407 1.26269 1.27131 1.27991 1.28851 1.2971 1.30567 1.31423 1.32278 1.33132 1.33983 1.34834 1.35682 1.36528 1.37373 1.38215 1.39055 1.39892 1.40727 1.4156 1.42389 1.43215 1.44039 1.44858 1.45674 1.46487 1.47295 1.48099 1.48898 1.49693 1.50482 1.51266 1.52043 1.52814 1.53579 1.54336 
0.724151 0.731981 0.739819 0.747665 0.755524 0.763396 0.771284 0.779191 0.787116 0.795062 0.803031 0.811021 0.819035 0.827072 0.835133 0.843219 0.851328 0.85946 0.867617 0.875796 0.883999 0.892224 0.900471 0.908739 0.917029 0.92534 0.93367 0.94202 0.950389 0.958777 0.967182 0.975605 0.984045 0.992501 1.00097 1.00946 1.01796 1.02648 1.03501 1.04355 1.0521 1.06067 1.06924 1.07783 1.08643 1.09504 1.10365 1.11227 1.1209 1.12954 1.13819 1.14684 1.15549 1.16415 1.17281 1.18147 1.19014 1.19881 1.20748 1.21614 1.22481 1.23347 1.24214 1.2508 1.25945 1.2681 1.27674 1.28538 1.294 1.30262 1.31123 1.31983 1.32842 1.33699 1.34555 1.35409 1.36262 1.37112 1.37961 1.38808 1.39653 1.40495 1.41335 1.42172 1.43007 1.43838 1.44666 1.45491 1.46312 1.4713 1.47943 1.48752 1.49556 1.50355 1.51149 1.51937 1.5272 1.53495 1.54264 1.55026 
0.730989 0.738784 0.746586 0.754396 0.762218 0.770052 0.777902 0.785768 0.793653 0.801557 0.809483 0.81743 0.825399 0.833392 0.841408 0.849447 0.857511 0.865598 0.873708 0.881842 0.89 0.89818 0.906383 0.914608 0.922855 0.931124 0.939414 0.947724 0.956055 0.964405 0.972775 0.981163 0.989569 0.997993 1.00643 1.01489 1.02337 1.03186 1.04036 1.04888 1.05741 1.06596 1.07452 1.08309 1.09167 1.10027 1.10887 1.11749 1.12611 1.13475 1.14339 1.15203 1.16069 1.16935 1.17801 1.18669 1.19536 1.20404 1.21272 1.2214 1.23008 1.23876 1.24744 1.25612 1.2648 1.27347 1.28214 1.29081 1.29946 1.30811 1.31676 1.32539 1.33401 1.34262 1.35122 1.3598 1.36837 1.37692 1.38545 1.39396 1.40246 1.41093 1.41937 1.42779 1.43619 1.44455 1.45288 1.46118 1.46944 1.47766 1.48584 1.49398 1.50207 1.51011 1.51809 1.52602 1.53389 1.54169 1.54943 1.55709 
0.737756 0.745516 0.753282 0.761056 0.76884 0.776636 0.784447 0.792275 0.800119 0.807983 0.815867 0.823771 0.831698 0.839647 0.847619 0.855615 0.863634 0.871677 0.879743 0.887833 0.895947 0.904085 0.912245 0.920429 0.928635 0.936864 0.945114 0.953387 0.96168 0.969994 0.978329 0.986684 0.995058 1.00345 1.01186 1.02029 1.02874 1.03721 1.04569 1.05418 1.0627 1.07123 1.07977 1.08832 1.09689 1.10548 1.11407 1.12268 1.1313 1.13992 1.14856 1.15721 1.16586 1.17453 1.1832 1.19187 1.20055 1.20924 1.21793 1.22663 1.23532 1.24402 1.25272 1.26142 1.27012 1.27882 1.28751 1.2962 1.30489 1.31357 1.32224 1.33091 1.33957 1.34821 1.35685 1.36547 1.37408 1.38267 1.39124 1.3998 1.40834 1.41685 1.42534 1.43381 1.44225 1.45066 1.45904 1.46738 1.47569 1.48396 1.49219 1.50037 1.50851 1.5166 1.52463 1.5326 1.54051 1.54836 1.55614 1.56384 
0.744451 0.752176 0.759905 0.767643 0.77539 0.78315 0.790923 0.798711 0.806516 0.81434 0.822183 0.830047 0.837932 0.845839 0.853769 0.861722 0.869698 0.877698 0.885723 0.893771 0.901843 0.909939 0.918059 0.926202 0.934369 0.942559 0.950772 0.959007 0.967265 0.975545 0.983846 0.992168 1.00051 1.00888 1.01726 1.02566 1.03408 1.04252 1.05098 1.05946 1.06795 1.07646 1.08499 1.09353 1.10209 1.11066 1.11924 1.12784 1.13645 1.14508 1.15371 1.16236 1.17101 1.17968 1.18835 1.19703 1.20572 1.21442 1.22312 1.23183 1.24054 1.24926 1.25798 1.26669 1.27542 1.28414 1.29285 1.30157 1.31029 1.31899 1.3277 1.3364 1.34509 1.35377 1.36244 1.3711 1.37974 1.38838 1.39699 1.40559 1.41417 1.42273 1.43126 1.43977 1.44826 1.45671 1.46514 1.47353 1.48188 1.4902 1.49847 1.5067 1.51488 1.52302 1.53109 1.53911 1.54707 1.55496 1.56278 1.57053 
0.751075 0.758763 0.766457 0.774159 0.78187 0.789592 0.797328 0.805078 0.812845 0.82063 0.828433 0.836257 0.844102 0.851968 0.859857 0.867769 0.875705 0.883664 0.891647 0.899655 0.907687 0.915743 0.923824 0.931928 0.940057 0.94821 0.956387 0.964587 0.97281 0.981057 0.989326 0.997617 1.00593 1.01427 1.02262 1.031 1.0394 1.04781 1.05625 1.06471 1.07318 1.08167 1.09018 1.09871 1.10726 1.11582 1.12439 1.13298 1.14159 1.15021 1.15884 1.16748 1.17614 1.18481 1.19349 1.20217 1.21087 1.21958 1.22829 1.23701 1.24573 1.25447 1.2632 1.27194 1.28068 1.28942 1.29816 1.30691 1.31565 1.32439 1.33312 1.34185 1.35057 1.35929 1.36799 1.37669 1.38537 1.39404 1.4027 1.41133 1.41995 1.42855 1.43713 1.44569 1.45421 1.46271 1.47118 1.47962 1.48801 1.49637 1.50469 1.51297 1.52119 1.52937 1.53749 1.54555 1.55355 1.56149 1.56935 1.57715 
0.757625 0.765279 0.772938 0.780604 0.788279 0.795965 0.803664 0.811377 0.819106 0.826853 0.834618 0.842403 0.850209 0.858036 0.865886 0.873758 0.881654 0.889574 0.897518 0.905487 0.91348 0.921498 0.929541 0.937609 0.945701 0.953819 0.96196 0.970127 0.978317 0.986531 0.994769 1.00303 1.01132 1.01962 1.02795 1.03631 1.04468 1.05307 1.06149 1.06993 1.07838 1.08686 1.09535 1.10387 1.1124 1.12095 1.12952 1.1381 1.1467 1.15531 1.16394 1.17259 1.18124 1.18991 1.1986 1.20729 1.21599 1.22471 1.23343 1.24216 1.2509 1.25965 1.2684 1.27716 1.28592 1.29468 1.30345 1.31221 1.32098 1.32974 1.33851 1.34726 1.35602 1.36477 1.3735 1.38223 1.39095 1.39966 1.40835 1.41703 1.42569 1.43433 1.44295 1.45154 1.46011 1.46866 1.47717 1.48564 1.49409 1.50249 1.51085 1.51917 1.52744 1.53566 1.54382 1.55193 1.55997 1.56795 1.57586 1.58369 
0.764103 0.771722 0.779346 0.786977 0.794617 0.802267 0.80993 0.817607 0.8253 0.83301 0.840738 0.848486 0.856254 0.864043 0.871855 0.879689 0.887547 0.895429 0.903336 0.911267 0.919223 0.927205 0.935212 0.943244 0.951301 0.959384 0.967493 0.975627 0.983785 0.991969 1.00018 1.00841 1.01667 1.02495 1.03325 1.04158 1.04993 1.05831 1.0667 1.07512 1.08356 1.09202 1.1005 1.109 1.11752 1.12606 1.13462 1.1432 1.15179 1.1604 1.16903 1.17767 1.18633 1.195 1.20368 1.21238 1.22109 1.22982 1.23855 1.24729 1.25605 1.26481 1.27357 1.28235 1.29113 1.29991 1.3087 1.31749 1.32628 1.33507 1.34386 1.35265 1.36143 1.37021 1.37898 1.38774 1.3965 1.40524 1.41397 1.42268 1.43138 1.44006 1.44872 1.45735 1.46596 1.47454 1.4831 1.49162 1.5001 1.50854 1.51695 1.52531 1.53362 1.54188 1.55009 1.55823 1.56632 1.57434 1.58229 1.59016 
0.770507 0.778092 0.785682 0.793279 0.800884 0.8085 0.816128 0.82377 0.831428 0.839102 0.846794 0.854505 0.862237 0.86999 0.877765 0.885563 0.893385 0.90123 0.909101 0.916996 0.924917 0.932863 0.940836 0.948834 0.956858 0.964909 0.972985 0.981088 0.989216 0.99737 1.00555 1.01376 1.02199 1.03024 1.03852 1.04683 1.05516 1.06351 1.07189 1.08029 1.08871 1.09716 1.10562 1.11411 1.12262 1.13115 1.1397 1.14827 1.15686 1.16546 1.17409 1.18273 1.19139 1.20006 1.20875 1.21746 1.22617 1.2349 1.24365 1.2524 1.26117 1.26994 1.27872 1.28751 1.29631 1.30512 1.31392 1.32274 1.33155 1.34037 1.34918 1.358 1.36681 1.37562 1.38442 1.39321 1.402 1.41078 1.41954 1.42829 1.43703 1.44574 1.45444 1.46311 1.47176 1.48038 1.48897 1.49753 1.50605 1.51454 1.52298 1.53138 1.53973 1.54804 1.55628 1.56447 1.57259 1.58065 1.58864 1.59656 
0.776838 0.784389 0.791946 0.799509 0.807081 0.814664 0.822258 0.829866 0.837489 0.845128 0.852786 0.860462 0.868159 0.875877 0.883617 0.89138 0.899167 0.906978 0.914814 0.922675 0.930562 0.938475 0.946414 0.95438 0.962372 0.970391 0.978437 0.98651 0.99461 1.00274 1.01089 1.01907 1.02727 1.03551 1.04376 1.05205 1.06036 1.06869 1.07705 1.08543 1.09384 1.10227 1.11072 1.1192 1.1277 1.13622 1.14476 1.15332 1.1619 1.17051 1.17913 1.18777 1.19643 1.20511 1.2138 1.22251 1.23123 1.23997 1.24872 1.25748 1.26626 1.27505 1.28385 1.29265 1.30147 1.31029 1.31912 1.32795 1.33679 1.34563 1.35447 1.36331 1.37215 1.38099 1.38982 1.39865 1.40747 1.41627 1.42507 1.43385 1.44262 1.45137 1.46011 1.46882 1.4775 1.48616 1.49479 1.50339 1.51195 1.52047 1.52896 1.5374 1.54579 1.55413 1.56241 1.57064 1.5788 1.5869 1.59493 1.60288 
0.783093 0.790613 0.798137 0.805669 0.813208 0.820758 0.828319 0.835894 0.843484 0.85109 0.858714 0.866357 0.874021 0.881705 0.889411 0.897141 0.904894 0.912672 0.920475 0.928304 0.936158 0.944039 0.951947 0.959882 0.967844 0.975833 0.98385 0.991894 0.999966 1.00807 1.01619 1.02435 1.03253 1.04074 1.04897 1.05724 1.06552 1.07384 1.08218 1.09055 1.09894 1.10736 1.1158 1.12426 1.13275 1.14126 1.1498 1.15835 1.16693 1.17553 1.18415 1.19279 1.20145 1.21013 1.21882 1.22754 1.23627 1.24501 1.25377 1.26255 1.27134 1.28014 1.28895 1.29777 1.3066 1.31544 1.32429 1.33314 1.342 1.35087 1.35973 1.3686 1.37746 1.38633 1.39519 1.40404 1.41289 1.42173 1.43056 1.43937 1.44818 1.45696 1.46573 1.47447 1.48319 1.49189 1.50055 1.50919 1.51779 1.52635 1.53487 1.54334 1.55177 1.56015 1.56847 1.57674 1.58494 1.59308 1.60114 1.60913 
0.789274 0.796763 0.804256 0.811756 0.819264 0.826782 0.834312 0.841855 0.849413 0.856988 0.86458 0.872191 0.879822 0.887474 0.895149 0.902846 0.910568 0.918314 0.926086 0.933883 0.941707 0.949557 0.957435 0.96534 0.973273 0.981235 0.989224 0.997241 1.00529 1.01336 1.02146 1.02959 1.03775 1.04594 1.05416 1.0624 1.07067 1.07897 1.08729 1.09564 1.10402 1.11242 1.12085 1.1293 1.13778 1.14629 1.15481 1.16336 1.17194 1.18053 1.18915 1.19779 1.20645 1.21513 1.22383 1.23255 1.24128 1.25004 1.2588 1.26759 1.27639 1.2852 1.29403 1.30286 1.31171 1.32057 1.32943 1.33831 1.34719 1.35607 1.36496 1.37385 1.38274 1.39163 1.40052 1.4094 1.41828 1.42714 1.436 1.44485 1.45368 1.4625 1.4713 1.48008 1.48883 1.49756 1.50626 1.51493 1.52357 1.53216 1.54072 1.54923 1.5577 1.56611 1.57447 1.58277 1.59101 1.59918 1.60728 1.61531 
0.79538 0.802838 0.810301 0.817771 0.825249 0.832737 0.840237 0.84775 0.855277 0.862821 0.870383 0.877963 0.885564 0.893185 0.900829 0.908496 0.916188 0.923904 0.931645 0.939413 0.947208 0.955029 0.962879 0.970756 0.978662 0.986596 0.994559 1.00255 1.01057 1.01862 1.0267 1.03481 1.04295 1.05111 1.05931 1.06753 1.07578 1.08406 1.09237 1.10071 1.10907 1.11746 1.12588 1.13432 1.14279 1.15129 1.15981 1.16836 1.17693 1.18552 1.19413 1.20277 1.21143 1.22011 1.22882 1.23754 1.24628 1.25504 1.26382 1.27261 1.28142 1.29024 1.29908 1.30793 1.31679 1.32567 1.33455 1.34344 1.35234 1.36125 1.37016 1.37907 1.38798 1.3969 1.40581 1.41472 1.42362 1.43252 1.44141 1.45028 1.45915 1.468 1.47683 1.48564 1.49442 1.50318 1.51192 1.52062 1.52929 1.53792 1.54651 1.55505 1.56355 1.572 1.58039 1.58873 1.597 1.60521 1.61335 1.62141 
0.801409 0.808839 0.816273 0.823714 0.831164 0.838623 0.846093 0.853577 0.861076 0.868591 0.876123 0.883674 0.891246 0.898838 0.906453 0.914092 0.921754 0.929442 0.937155 0.944895 0.952662 0.960456 0.968279 0.97613 0.984009 0.991918 0.999857 1.00782 1.01582 1.02385 1.03191 1.03999 1.04811 1.05626 1.06443 1.07264 1.08087 1.08914 1.09743 1.10575 1.11411 1.12248 1.13089 1.13932 1.14779 1.15627 1.16479 1.17333 1.18189 1.19048 1.1991 1.20774 1.2164 1.22508 1.23378 1.24251 1.25126 1.26002 1.26881 1.27761 1.28643 1.29526 1.30411 1.31298 1.32185 1.33074 1.33964 1.34855 1.35747 1.36639 1.37532 1.38426 1.39319 1.40213 1.41107 1.42 1.42893 1.43786 1.44677 1.45568 1.46457 1.47344 1.4823 1.49114 1.49996 1.50875 1.51752 1.52625 1.53495 1.54361 1.55224 1.56082 1.56935 1.57783 1.58625 1.59462 1.60293 1.61117 1.61934 1.62743 
0.807362 0.814764 0.822171 0.829585 0.837007 0.844438 0.851881 0.859338 0.866809 0.874296 0.881801 0.889324 0.896868 0.904433 0.912021 0.919632 0.927268 0.934928 0.942615 0.950328 0.958069 0.965838 0.973635 0.981461 0.989316 0.997201 1.00512 1.01306 1.02104 1.02904 1.03708 1.04515 1.05324 1.06137 1.06953 1.07772 1.08594 1.09419 1.10247 1.11078 1.11912 1.12748 1.13588 1.1443 1.15276 1.16124 1.16975 1.17828 1.18684 1.19543 1.20404 1.21268 1.22134 1.23003 1.23873 1.24746 1.25621 1.26499 1.27378 1.28259 1.29142 1.30026 1.30912 1.318 1.32689 1.33579 1.34471 1.35363 1.36257 1.37151 1.38046 1.38942 1.39837 1.40733 1.41629 1.42525 1.4342 1.44315 1.45209 1.46102 1.46994 1.47885 1.48773 1.4966 1.50545 1.51427 1.52306 1.53183 1.54056 1.54925 1.5579 1.56651 1.57508 1.58359 1.59205 1.60045 1.60878 1.61705 1.62526 1.63338 